 Entering Gaussian System, Link 0=g16
 Initial command:
 /software/gaussian/g16-c01/avx2/g16/l1.exe "/local_scratch/24948798/Gau-7365.inp" -scrdir="/local_scratch/24948798/"
 Entering Link 1 = /software/gaussian/g16-c01/avx2/g16/l1.exe PID=      7366.
  
 Copyright (c) 1988-2019, Gaussian, Inc.  All Rights Reserved.
  
 This is part of the Gaussian(R) 16 program.  It is based on
 the Gaussian(R) 09 system (copyright 2009, Gaussian, Inc.),
 the Gaussian(R) 03 system (copyright 2003, Gaussian, Inc.),
 the Gaussian(R) 98 system (copyright 1998, Gaussian, Inc.),
 the Gaussian(R) 94 system (copyright 1995, Gaussian, Inc.),
 the Gaussian 92(TM) system (copyright 1992, Gaussian, Inc.),
 the Gaussian 90(TM) system (copyright 1990, Gaussian, Inc.),
 the Gaussian 88(TM) system (copyright 1988, Gaussian, Inc.),
 the Gaussian 86(TM) system (copyright 1986, Carnegie Mellon
 University), and the Gaussian 82(TM) system (copyright 1983,
 Carnegie Mellon University). Gaussian is a federally registered
 trademark of Gaussian, Inc.
  
 This software contains proprietary and confidential information,
 including trade secrets, belonging to Gaussian, Inc.
  
 This software is provided under written license and may be
 used, copied, transmitted, or stored only in accord with that
 written license.
  
 The following legend is applicable only to US Government
 contracts under FAR:
  
                    RESTRICTED RIGHTS LEGEND
  
 Use, reproduction and disclosure by the US Government is
 subject to restrictions as set forth in subparagraphs (a)
 and (c) of the Commercial Computer Software - Restricted
 Rights clause in FAR 52.227-19.
  
 Gaussian, Inc.
 340 Quinnipiac St., Bldg. 40, Wallingford CT 06492
  
  
 ---------------------------------------------------------------
 Warning -- This program may not be used in any manner that
 competes with the business of Gaussian, Inc. or will provide
 assistance to any competitor of Gaussian, Inc.  The licensee
 of this program is prohibited from giving any competitor of
 Gaussian, Inc. access to this program.  By using this program,
 the user acknowledges that Gaussian, Inc. is engaged in the
 business of creating and licensing software in the field of
 computational chemistry and represents and warrants to the
 licensee that it is not a competitor of Gaussian, Inc. and that
 it will not use this program in any manner prohibited above.
 ---------------------------------------------------------------
  

 Cite this work as:
 Gaussian 16, Revision C.01,
 M. J. Frisch, G. W. Trucks, H. B. Schlegel, G. E. Scuseria, 
 M. A. Robb, J. R. Cheeseman, G. Scalmani, V. Barone, 
 G. A. Petersson, H. Nakatsuji, X. Li, M. Caricato, A. V. Marenich, 
 J. Bloino, B. G. Janesko, R. Gomperts, B. Mennucci, H. P. Hratchian, 
 J. V. Ortiz, A. F. Izmaylov, J. L. Sonnenberg, D. Williams-Young, 
 F. Ding, F. Lipparini, F. Egidi, J. Goings, B. Peng, A. Petrone, 
 T. Henderson, D. Ranasinghe, V. G. Zakrzewski, J. Gao, N. Rega, 
 G. Zheng, W. Liang, M. Hada, M. Ehara, K. Toyota, R. Fukuda, 
 J. Hasegawa, M. Ishida, T. Nakajima, Y. Honda, O. Kitao, H. Nakai, 
 T. Vreven, K. Throssell, J. A. Montgomery, Jr., J. E. Peralta, 
 F. Ogliaro, M. J. Bearpark, J. J. Heyd, E. N. Brothers, K. N. Kudin, 
 V. N. Staroverov, T. A. Keith, R. Kobayashi, J. Normand, 
 K. Raghavachari, A. P. Rendell, J. C. Burant, S. S. Iyengar, 
 J. Tomasi, M. Cossi, J. M. Millam, M. Klene, C. Adamo, R. Cammi, 
 J. W. Ochterski, R. L. Martin, K. Morokuma, O. Farkas, 
 J. B. Foresman, and D. J. Fox, Gaussian, Inc., Wallingford CT, 2019.
 
 ******************************************
 Gaussian 16:  ES64L-G16RevC.01  3-Jul-2019
                31-May-2024 
 ******************************************
 %chk=geometry.chk
 %mem=56GB
 %nprocshared=24
 Will use up to   24 processors via shared memory.
 --------------------------------------------
 #P FREQ=SaveNormalModes wB97XD/6-31G* NoSymm
 --------------------------------------------
 1/10=4,30=1,38=1/1,3;
 2/12=2,15=1,17=6,18=5,40=1/2;
 3/5=1,6=6,7=1,11=2,25=1,30=1,71=2,74=-58,140=1/1,2,3;
 4//1;
 5/5=2,38=5,98=1/2;
 8/6=4,10=90,11=11/1;
 11/6=1,8=1,9=11,15=111,16=1,31=1/1,2,10;
 10/6=1,31=1/2;
 6/7=2,8=2,9=2,10=2,28=1/1;
 7/8=1,10=1,25=1,30=1,92=1/1,2,3,16;
 1/10=4,30=1/3;
 99//99;
 Leave Link    1 at Fri May 31 11:58:58 2024, MaxMem=  7516192768 cpu:               3.4 elap:               0.2
 (Enter /software/gaussian/g16-c01/avx2/g16/l101.exe)
 ---------------------------------
 TS Geometry (OPTIMIZED FROM QST3)
 ---------------------------------
 Symbolic Z-matrix:
 Charge =  0 Multiplicity = 1
 C                    -0.71456  -1.26431   0.12826 
 C                     0.66184  -1.09565   0.0346 
 C                     1.18972   0.18535  -0.146 
 C                     0.33995   1.28797  -0.23176 
 C                    -1.03494   1.10698  -0.13673 
 C                    -1.56752  -0.16689   0.04333 
 H                    -1.1205   -2.26145   0.26863 
 H                     1.32877  -1.9503    0.10057 
 H                     0.76892   2.27428  -0.37206 
 H                    -1.6927    1.96804  -0.20397 
 H                    -2.64159  -0.30435   0.11714 
 N                     2.56698   0.40598  -0.24594 
 C                     3.59898  -0.21758  -0.22655 
 O                     4.66564  -0.70552  -0.22528 
 H                     34.94802   1.09689  -0.32181 
 O                     36.03483   0.30721  -0.31084 
 C                     36.98764   0.35904   0.75422 
 C                     36.95114   1.41368   1.67635 
 C                     37.95791  -0.64481   0.87585 
 C                     37.8849   1.46447   2.72011 
 H                     36.21031   2.18014   1.58348 
 C                     38.89167  -0.59401   1.91961 
 H                     37.98579  -1.45005   0.17179 
 C                     38.85516   0.46063   2.84174 
 H                     37.85702   2.26972   3.42418 
 H                     39.63249  -1.36047   2.01248 
 H                     39.56811   0.49941   3.63867 
 
 ITRead=  0  0  0  0  0  0  0  0  0  0  0  0  0  0  0  0  0  0  0  0
 ITRead=  0  0  0  0  0  0  0
 MicOpt= -1 -1 -1 -1 -1 -1 -1 -1 -1 -1 -1 -1 -1 -1 -1 -1 -1 -1 -1 -1
 MicOpt= -1 -1 -1 -1 -1 -1 -1
 NAtoms=     27 NQM=       27 NQMF=       0 NMMI=      0 NMMIF=      0
                NMic=       0 NMicF=      0.
                    Isotopes and Nuclear Properties:
 (Nuclear quadrupole moments (NQMom) in fm**2, nuclear magnetic moments (NMagM)
  in nuclear magnetons)

  Atom         1           2           3           4           5           6           7           8           9          10
 IAtWgt=          12          12          12          12          12          12           1           1           1           1
 AtmWgt=  12.0000000  12.0000000  12.0000000  12.0000000  12.0000000  12.0000000   1.0078250   1.0078250   1.0078250   1.0078250
 NucSpn=           0           0           0           0           0           0           1           1           1           1
 AtZEff=  -0.0000000  -0.0000000  -0.0000000  -0.0000000  -0.0000000  -0.0000000  -0.0000000  -0.0000000  -0.0000000  -0.0000000
 NQMom=    0.0000000   0.0000000   0.0000000   0.0000000   0.0000000   0.0000000   0.0000000   0.0000000   0.0000000   0.0000000
 NMagM=    0.0000000   0.0000000   0.0000000   0.0000000   0.0000000   0.0000000   2.7928460   2.7928460   2.7928460   2.7928460
 AtZNuc=   6.0000000   6.0000000   6.0000000   6.0000000   6.0000000   6.0000000   1.0000000   1.0000000   1.0000000   1.0000000

  Atom        11          12          13          14          15          16          17          18          19          20
 IAtWgt=           1          14          12          16           1          16          12          12          12          12
 AtmWgt=   1.0078250  14.0030740  12.0000000  15.9949146   1.0078250  15.9949146  12.0000000  12.0000000  12.0000000  12.0000000
 NucSpn=           1           2           0           0           1           0           0           0           0           0
 AtZEff=  -0.0000000  -0.0000000  -0.0000000  -0.0000000  -0.0000000  -0.0000000  -0.0000000  -0.0000000  -0.0000000  -0.0000000
 NQMom=    0.0000000   2.0440000   0.0000000   0.0000000   0.0000000   0.0000000   0.0000000   0.0000000   0.0000000   0.0000000
 NMagM=    2.7928460   0.4037610   0.0000000   0.0000000   2.7928460   0.0000000   0.0000000   0.0000000   0.0000000   0.0000000
 AtZNuc=   1.0000000   7.0000000   6.0000000   8.0000000   1.0000000   8.0000000   6.0000000   6.0000000   6.0000000   6.0000000

  Atom        21          22          23          24          25          26          27
 IAtWgt=           1          12           1          12           1           1           1
 AtmWgt=   1.0078250  12.0000000   1.0078250  12.0000000   1.0078250   1.0078250   1.0078250
 NucSpn=           1           0           1           0           1           1           1
 AtZEff=  -0.0000000  -0.0000000  -0.0000000  -0.0000000  -0.0000000  -0.0000000  -0.0000000
 NQMom=    0.0000000   0.0000000   0.0000000   0.0000000   0.0000000   0.0000000   0.0000000
 NMagM=    2.7928460   0.0000000   2.7928460   0.0000000   2.7928460   2.7928460   2.7928460
 AtZNuc=   1.0000000   6.0000000   1.0000000   6.0000000   1.0000000   1.0000000   1.0000000
 Leave Link  101 at Fri May 31 11:58:58 2024, MaxMem=  7516192768 cpu:               2.3 elap:               0.1
 (Enter /software/gaussian/g16-c01/avx2/g16/l103.exe)

 GradGradGradGradGradGradGradGradGradGradGradGradGradGradGradGradGradGrad
 Berny optimization.
 Initialization pass.
 Trust Radius=3.00D-01 FncErr=1.00D-07 GrdErr=1.00D-07 EigMax=2.50D+02 EigMin=1.00D-04
 Number of steps in this run=      2 maximum allowed number of steps=      2.
 GradGradGradGradGradGradGradGradGradGradGradGradGradGradGradGradGradGrad

 Leave Link  103 at Fri May 31 11:58:59 2024, MaxMem=  7516192768 cpu:               0.4 elap:               0.0
 (Enter /software/gaussian/g16-c01/avx2/g16/l202.exe)
                          Input orientation:                          
 ---------------------------------------------------------------------
 Center     Atomic      Atomic             Coordinates (Angstroms)
 Number     Number       Type             X           Y           Z
 ---------------------------------------------------------------------
      1          6           0       -0.714560   -1.264310    0.128260
      2          6           0        0.661840   -1.095650    0.034600
      3          6           0        1.189720    0.185350   -0.146000
      4          6           0        0.339950    1.287970   -0.231760
      5          6           0       -1.034940    1.106980   -0.136730
      6          6           0       -1.567520   -0.166890    0.043330
      7          1           0       -1.120500   -2.261450    0.268630
      8          1           0        1.328770   -1.950300    0.100570
      9          1           0        0.768920    2.274280   -0.372060
     10          1           0       -1.692700    1.968040   -0.203970
     11          1           0       -2.641590   -0.304350    0.117140
     12          7           0        2.566980    0.405980   -0.245940
     13          6           0        3.598980   -0.217580   -0.226550
     14          8           0        4.665640   -0.705520   -0.225280
     15          1           0       34.948018    1.096887   -0.321807
     16          8           0       36.034829    0.307208   -0.310839
     17          6           0       36.987644    0.359038    0.754223
     18          6           0       36.951135    1.413679    1.676352
     19          6           0       37.957912   -0.644808    0.875854
     20          6           0       37.884895    1.464474    2.720111
     21          1           0       36.210315    2.180139    1.583483
     22          6           0       38.891672   -0.594013    1.919614
     23          1           0       37.985787   -1.450050    0.171789
     24          6           0       38.855165    0.460629    2.841741
     25          1           0       37.857021    2.269717    3.424176
     26          1           0       39.632492   -1.360473    2.012483
     27          1           0       39.568111    0.499413    3.638675
 ---------------------------------------------------------------------
                    Distance matrix (angstroms):
                    1          2          3          4          5
     1  C    0.000000
     2  C    1.389854   0.000000
     3  C    2.408945   1.397224   0.000000
     4  C    2.784913   2.419960   1.394717   0.000000
     5  C    2.407463   2.785677   2.408028   1.390004   0.000000
     6  C    1.392510   2.415102   2.786089   2.414691   1.392411
     7  H    1.085716   2.142568   3.390555   3.870618   3.393812
     8  H    2.155585   1.086082   2.154329   3.402147   3.871743
     9  H    3.869451   3.396066   2.142850   1.084669   2.161453
    10  H    3.393408   3.871301   3.389644   2.143580   1.085631
    11  H    2.152926   3.397884   3.871432   3.398058   2.153515
    12  N    3.701135   2.441957   1.398396   2.395364   3.671125
    13  C    4.452882   3.076686   2.444049   3.589984   4.820347
    14  O    5.420682   4.031148   3.589144   4.762944   5.982442
    15  H   35.743492  34.358059  33.771060  34.608712  35.983435
    16  O   36.785596  35.402481  34.845712  35.708438  37.078804
    17  C   37.742328  36.362041  35.809663  36.672722  38.040375
    18  C   37.792497  36.412979  35.828879  36.661091  38.030557
    19  C   38.684658  37.308282  36.791756  37.683862  39.045314
    20  C   38.782495  37.407513  36.829155  37.661221  39.026182
    21  H   37.113721  35.732673  35.119971  35.927345  37.300400
    22  C   39.652388  38.279564  37.766538  38.657542  40.015701
    23  H   38.700817  37.325882  36.833763  37.747432  39.105635
    24  C   39.700145  38.327955  37.784760  38.646509  40.006369
    25  H   38.873118  37.500619  36.899617  37.707563  39.071942
    26  H   40.391140  39.021710  38.534340  39.445592  40.798866
    27  H   40.473786  39.105390  38.565831  39.426523  40.782724
                    6          7          8          9         10
     6  C    0.000000
     7  H    2.153548   0.000000
     8  H    3.401812   2.474668   0.000000
     9  H    3.404528   4.955122   4.287644   0.000000
    10  H    2.152848   4.294106   4.957360   2.486284   0.000000
    11  H    1.085343   2.483325   4.298044   4.303513   2.483397
    12  N    4.184011   4.580117   2.684267   2.596049   4.537253
    13  C    5.173792   5.166827   2.874575   3.773563   5.725323
    14  O    6.262153   6.012011   3.576361   4.907665   6.897598
    15  H   36.539225  36.229339  33.759703  34.199408  36.651262
    16  O   37.607005  37.248520  34.781836  35.320780  37.764219
    17  C   38.565304  38.201223  35.739553  36.286811  38.725651
    18  C   38.585642  38.274504  35.815532  36.250370  38.693526
    19  C   39.537087  39.116550  36.660597  37.324248  39.751277
    20  C   39.576755  39.259561  36.808599  37.253361  39.688662
    21  H   37.881993  37.617101  35.156532  35.495429  37.945731
    22  C   40.504927  40.080918  37.631371  38.299127  40.720572
    23  H   39.574324  39.114824  36.660499  37.406705  39.827213
    24  C   40.524293  40.150771  37.703540  38.264604  40.690023
    25  H   39.644187  39.366687  36.921105  37.281881  39.716934
    26  H   41.264309  40.800235  38.355944  39.105942  41.518227
    27  H   41.297828  40.921176  38.480729  39.046298  41.465375
                   11         12         13         14         15
    11  H    0.000000
    12  N    5.269307   0.000000
    13  C    6.250629   1.205913   0.000000
    14  O    7.326240   2.374917   1.172967   0.000000
    15  H   37.618277  32.388497  31.376728  30.336123   0.000000
    16  O   38.683621  33.468058  32.440204  31.385649   1.343456
    17  C   39.639906  34.435224  33.408042  32.354361   2.421226
    18  C   39.660644  34.452588  33.446200  32.410807   2.847012
    19  C   40.608018  35.424294  34.379267  33.310532   3.677956
    20  C   40.648496  35.458046  34.453390  33.420100   4.244248
    21  H   38.958868  33.739716  32.749419  31.727987   2.529221
    22  C   41.573365  36.402924  35.359890  34.293356   4.841025
    23  H   40.643565  35.469864  34.411192  33.330829   3.994818
    24  C   41.593140  36.419351  35.395945  34.346618   5.067412
    25  H   40.714860  35.529287  34.541682  33.523698   4.885716
    26  H   42.329727  37.176243  36.121095  35.044505   5.782027
    27  H   42.363972  37.204606  36.183317  35.136370   6.114545
                   16         17         18         19         20
    16  O    0.000000
    17  C    1.430000   0.000000
    18  C    2.452106   1.401400   0.000000
    19  C    2.452106   1.401400   2.427296   0.000000
    20  C    3.734792   2.427296   1.401400   2.802800   0.000000
    21  H    2.669667   2.146700   1.070000   3.396345   2.146700
    22  C    3.734792   2.427296   2.802800   1.401400   2.427296
    23  H    2.669667   2.146700   3.396345   1.070000   3.872800
    24  C    4.232800   2.802800   2.427296   2.427296   1.401400
    25  H    4.595886   3.396345   2.146700   3.872800   1.070000
    26  H    4.595886   3.396345   3.872800   2.146700   3.396345
    27  H    5.302800   3.872800   3.396345   3.396345   2.146700
                   21         22         23         24         25
    21  H    0.000000
    22  C    3.872800   0.000000
    23  H    4.280590   2.146700   0.000000
    24  C    3.396345   1.401400   3.396345   0.000000
    25  H    2.471400   3.396345   4.942800   2.146700   0.000000
    26  H    4.942800   1.070000   2.471400   2.146700   4.280590
    27  H    4.280590   2.146700   4.280590   1.070000   2.471400
                   26         27
    26  H    0.000000
    27  H    2.471400   0.000000
 Symmetry turned off by external request.
 Stoichiometry    C13H11NO2
 Framework group  C1[X(C13H11NO2)]
 Deg. of freedom    75
 Full point group                 C1      NOp   1
 Rotational constants (GHZ):           1.7986801           0.0071554           0.0071489
 Leave Link  202 at Fri May 31 11:58:59 2024, MaxMem=  7516192768 cpu:               0.9 elap:               0.1
 (Enter /software/gaussian/g16-c01/avx2/g16/l301.exe)
 Standard basis: 6-31G(d) (6D, 7F)
 Ernie: Thresh=  0.10000D-02 Tol=  0.10000D-05 Strict=F.
   262 basis functions,   492 primitive gaussians,   262 cartesian basis functions
    56 alpha electrons       56 beta electrons
       nuclear repulsion energy       685.8746971987 Hartrees.
 IExCor= 4639 DFT=T Ex+Corr=wB97XD ExCW=0 ScaHFX=  1.000000
 ScaDFX=  1.000000  1.000000  1.000000  1.000000 ScalE2=  1.000000  1.000000
 IRadAn=      5 IRanWt=     -1 IRanGd=            0 ICorTp=0 IEmpDi=121
 HFx  wShort=  0.000000 wLong=  0.200000 cFull=  0.222036 cShort=  0.000000 cLong=  0.777964
 DFx  wShort=  0.000000 wLong=  0.200000 cFull=  0.000000 cShort=  0.000000 cLong=  1.000000
 NAtoms=   27 NActive=   27 NUniq=   27 SFac= 1.00D+00 NAtFMM=   60 NAOKFM=F Big=F
 Integral buffers will be    131072 words long.
 Raffenetti 2 integral format.
 Two-electron integral symmetry is turned off.
 R6Disp:  Grimme-D2 Dispersion energy=       -0.0105750807 Hartrees.
 Nuclear repulsion after empirical dispersion term =      685.8641221181 Hartrees.
 Leave Link  301 at Fri May 31 11:59:00 2024, MaxMem=  7516192768 cpu:               1.3 elap:               0.1
 (Enter /software/gaussian/g16-c01/avx2/g16/l302.exe)
 NPDir=0 NMtPBC=     1 NCelOv=     1 NCel=       1 NClECP=     1 NCelD=      1
         NCelK=      1 NCelE2=     1 NClLst=     1 CellRange=     0.0.
 One-electron integrals computed using PRISM.
 NBasis=   262 RedAO= T EigKep=  4.58D-04  NBF=   262
 NBsUse=   262 1.00D-06 EigRej= -1.00D+00 NBFU=   262
 Precomputing XC quadrature grid using
 IXCGrd= 4 IRadAn=           5 IRanWt=          -1 IRanGd=           0 AccXCQ= 0.00D+00.
 Generated NRdTot=       0 NPtTot=           0 NUsed=           0 NTot=          32
 NSgBfM=   145   145   145   145   145 MxSgAt=    27 MxSgA2=    14.
 Leave Link  302 at Fri May 31 11:59:01 2024, MaxMem=  7516192768 cpu:               4.3 elap:               0.2
 (Enter /software/gaussian/g16-c01/avx2/g16/l303.exe)
 DipDrv:  MaxL=1.
 Leave Link  303 at Fri May 31 11:59:01 2024, MaxMem=  7516192768 cpu:               1.2 elap:               0.1
 (Enter /software/gaussian/g16-c01/avx2/g16/l401.exe)
 ExpMin= 1.61D-01 ExpMax= 5.48D+03 ExpMxC= 8.25D+02 IAcc=3 IRadAn=         5 AccDes= 0.00D+00
 Harris functional with IExCor= 4639 and IRadAn=       5 diagonalized for initial guess.
 HarFok:  IExCor= 4639 AccDes= 0.00D+00 IRadAn=         5 IDoV= 1 UseB2=F ITyADJ=14
 ICtDFT=  3500011 ScaDFX=  1.000000  1.000000  1.000000  1.000000
 FoFCou: FMM=F IPFlag=           0 FMFlag=      100000 FMFlg1=           0
         NFxFlg=           0 DoJE=T BraDBF=F KetDBF=T FulRan=T
         wScrn=  0.000000 ICntrl=       500 IOpCl=  0 I1Cent=   200000004 NGrid=           0
         NMat0=    1 NMatS0=      1 NMatT0=    0 NMatD0=    1 NMtDS0=    0 NMtDT0=    0
 Symmetry not used in FoFCou.
 Harris En= -676.783314089704    
 JPrj=0 DoOrth=F DoCkMO=F.
 Leave Link  401 at Fri May 31 11:59:02 2024, MaxMem=  7516192768 cpu:              12.7 elap:               0.6
 (Enter /software/gaussian/g16-c01/avx2/g16/l502.exe)
 Two-electron integral symmetry not used.
 Closed shell SCF:
 Using DIIS extrapolation, IDIIS=  1040.
 NGot=  7516192768 LenX=  7516046312 LenY=  7515977227
 Requested convergence on RMS density matrix=1.00D-08 within 128 cycles.
 Requested convergence on MAX density matrix=1.00D-06.
 Requested convergence on             energy=1.00D-06.
 No special actions if energy rises.
 Fock matrices will be formed incrementally for  20 cycles.
 Integral accuracy reduced to 1.0D-05 until final iterations.

 Cycle   1  Pass 0  IDiag  1:
 FoFJK:  IHMeth= 1 ICntrl=       0 DoSepK=T KAlg= 0 I1Cent=           0 FoldK=F
 IRaf=         1 NMat=       1 IRICut=       1 DoRegI=T DoRafI=F ISym2E= 0 IDoP0=0 IntGTp=1.
 FoFCou: FMM=F IPFlag=           0 FMFlag=      100000 FMFlg1=           0
         NFxFlg=           0 DoJE=T BraDBF=F KetDBF=F FulRan=T
         wScrn=  0.000000 ICntrl=       500 IOpCl=  0 I1Cent=           0 NGrid=           0
         NMat0=    1 NMatS0=      1 NMatT0=    0 NMatD0=    1 NMtDS0=    0 NMtDT0=    0
 Symmetry not used in FoFCou.
 E= -706.663962625973    
 DIIS: error= 7.44D-02 at cycle   1 NSaved=   1.
 NSaved= 1 IEnMin= 1 EnMin= -706.663962625973     IErMin= 1 ErrMin= 7.44D-02
 ErrMax= 7.44D-02  0.00D+00 EMaxC= 1.00D-01 BMatC= 6.86D-01 BMatP= 6.86D-01
 IDIUse=3 WtCom= 2.56D-01 WtEn= 7.44D-01
 Coeff-Com:  0.100D+01
 Coeff-En:   0.100D+01
 Coeff:      0.100D+01
 Gap=     0.482 Goal=   None    Shift=    0.000
 GapD=    0.482 DampG=2.000 DampE=0.500 DampFc=1.0000 IDamp=-1.
 RMSDP=3.29D-03 MaxDP=1.05D-01              OVMax= 1.47D-01

 Cycle   2  Pass 0  IDiag  1:
 RMSU=  3.29D-03    CP:  1.00D+00
 E= -706.744751543179     Delta-E=       -0.080788917206 Rises=F Damp=F
 DIIS: error= 2.80D-02 at cycle   2 NSaved=   2.
 NSaved= 2 IEnMin= 2 EnMin= -706.744751543179     IErMin= 2 ErrMin= 2.80D-02
 ErrMax= 2.80D-02  0.00D+00 EMaxC= 1.00D-01 BMatC= 1.57D-01 BMatP= 6.86D-01
 IDIUse=3 WtCom= 7.20D-01 WtEn= 2.80D-01
 Coeff-Com:  0.263D+00 0.737D+00
 Coeff-En:   0.333D+00 0.667D+00
 Coeff:      0.283D+00 0.717D+00
 Gap=     0.364 Goal=   None    Shift=    0.000
 RMSDP=1.96D-03 MaxDP=1.15D-01 DE=-8.08D-02 OVMax= 1.50D-01

 Cycle   3  Pass 0  IDiag  1:
 RMSU=  1.39D-03    CP:  1.00D+00  5.78D-01
 E= -706.819273614265     Delta-E=       -0.074522071086 Rises=F Damp=F
 DIIS: error= 2.15D-02 at cycle   3 NSaved=   3.
 NSaved= 3 IEnMin= 3 EnMin= -706.819273614265     IErMin= 3 ErrMin= 2.15D-02
 ErrMax= 2.15D-02  0.00D+00 EMaxC= 1.00D-01 BMatC= 7.01D-02 BMatP= 1.57D-01
 IDIUse=3 WtCom= 7.85D-01 WtEn= 2.15D-01
 Coeff-Com:  0.203D-01 0.399D+00 0.581D+00
 Coeff-En:   0.000D+00 0.308D+00 0.692D+00
 Coeff:      0.159D-01 0.380D+00 0.604D+00
 Gap=     0.370 Goal=   None    Shift=    0.000
 RMSDP=8.77D-04 MaxDP=5.95D-02 DE=-7.45D-02 OVMax= 6.63D-02

 Cycle   4  Pass 0  IDiag  1:
 RMSU=  4.12D-04    CP:  1.00D+00  7.34D-01  5.85D-01
 E= -706.873165074887     Delta-E=       -0.053891460622 Rises=F Damp=F
 DIIS: error= 4.42D-03 at cycle   4 NSaved=   4.
 NSaved= 4 IEnMin= 4 EnMin= -706.873165074887     IErMin= 4 ErrMin= 4.42D-03
 ErrMax= 4.42D-03  0.00D+00 EMaxC= 1.00D-01 BMatC= 3.23D-03 BMatP= 7.01D-02
 IDIUse=3 WtCom= 9.56D-01 WtEn= 4.42D-02
 Coeff-Com:  0.244D-02 0.149D+00 0.294D+00 0.554D+00
 Coeff-En:   0.000D+00 0.000D+00 0.000D+00 0.100D+01
 Coeff:      0.233D-02 0.142D+00 0.281D+00 0.574D+00
 Gap=     0.317 Goal=   None    Shift=    0.000
 RMSDP=1.90D-04 MaxDP=1.04D-02 DE=-5.39D-02 OVMax= 1.20D-02

 Cycle   5  Pass 0  IDiag  1:
 RMSU=  1.12D-04    CP:  1.00D+00  7.36D-01  6.39D-01  6.77D-01
 E= -706.875738502654     Delta-E=       -0.002573427767 Rises=F Damp=F
 DIIS: error= 8.63D-04 at cycle   5 NSaved=   5.
 NSaved= 5 IEnMin= 5 EnMin= -706.875738502654     IErMin= 5 ErrMin= 8.63D-04
 ErrMax= 8.63D-04  0.00D+00 EMaxC= 1.00D-01 BMatC= 1.04D-04 BMatP= 3.23D-03
 IDIUse=3 WtCom= 9.91D-01 WtEn= 8.63D-03
 Coeff-Com: -0.765D-03 0.109D-01 0.397D-01 0.181D+00 0.769D+00
 Coeff-En:   0.000D+00 0.000D+00 0.000D+00 0.000D+00 0.100D+01
 Coeff:     -0.758D-03 0.108D-01 0.394D-01 0.179D+00 0.771D+00
 Gap=     0.317 Goal=   None    Shift=    0.000
 RMSDP=5.41D-05 MaxDP=2.11D-03 DE=-2.57D-03 OVMax= 4.12D-03

 Cycle   6  Pass 0  IDiag  1:
 RMSU=  4.53D-05    CP:  1.00D+00  7.36D-01  6.47D-01  7.43D-01  9.66D-01
 E= -706.875818838260     Delta-E=       -0.000080335606 Rises=F Damp=F
 DIIS: error= 6.88D-04 at cycle   6 NSaved=   6.
 NSaved= 6 IEnMin= 6 EnMin= -706.875818838260     IErMin= 6 ErrMin= 6.88D-04
 ErrMax= 6.88D-04  0.00D+00 EMaxC= 1.00D-01 BMatC= 4.81D-05 BMatP= 1.04D-04
 IDIUse=3 WtCom= 9.93D-01 WtEn= 6.88D-03
 Coeff-Com: -0.815D-03-0.175D-01-0.216D-01 0.243D-01 0.468D+00 0.548D+00
 Coeff-En:   0.000D+00 0.000D+00 0.000D+00 0.000D+00 0.142D+00 0.858D+00
 Coeff:     -0.809D-03-0.174D-01-0.214D-01 0.241D-01 0.465D+00 0.550D+00
 Gap=     0.318 Goal=   None    Shift=    0.000
 RMSDP=2.60D-05 MaxDP=1.23D-03 DE=-8.03D-05 OVMax= 2.32D-03

 Cycle   7  Pass 0  IDiag  1:
 RMSU=  1.60D-05    CP:  1.00D+00  7.36D-01  6.51D-01  7.56D-01  1.09D+00
                    CP:  7.08D-01
 E= -706.875864272852     Delta-E=       -0.000045434592 Rises=F Damp=F
 DIIS: error= 1.25D-04 at cycle   7 NSaved=   7.
 NSaved= 7 IEnMin= 7 EnMin= -706.875864272852     IErMin= 7 ErrMin= 1.25D-04
 ErrMax= 1.25D-04  0.00D+00 EMaxC= 1.00D-01 BMatC= 2.73D-06 BMatP= 4.81D-05
 IDIUse=3 WtCom= 9.99D-01 WtEn= 1.25D-03
 Coeff-Com: -0.201D-03-0.951D-02-0.148D-01-0.118D-01 0.871D-01 0.222D+00
 Coeff-Com:  0.727D+00
 Coeff-En:   0.000D+00 0.000D+00 0.000D+00 0.000D+00 0.000D+00 0.000D+00
 Coeff-En:   0.100D+01
 Coeff:     -0.201D-03-0.950D-02-0.148D-01-0.118D-01 0.870D-01 0.222D+00
 Coeff:      0.727D+00
 Gap=     0.318 Goal=   None    Shift=    0.000
 RMSDP=9.24D-06 MaxDP=3.13D-04 DE=-4.54D-05 OVMax= 8.30D-04

 Initial convergence to 1.0D-05 achieved.  Increase integral accuracy.
 Cycle   8  Pass 1  IDiag  1:
 E= -706.875811863761     Delta-E=        0.000052409090 Rises=F Damp=F
 DIIS: error= 4.59D-05 at cycle   1 NSaved=   1.
 NSaved= 1 IEnMin= 1 EnMin= -706.875811863761     IErMin= 1 ErrMin= 4.59D-05
 ErrMax= 4.59D-05  0.00D+00 EMaxC= 1.00D-01 BMatC= 6.89D-07 BMatP= 6.89D-07
 IDIUse=1 WtCom= 1.00D+00 WtEn= 0.00D+00
 Coeff-Com:  0.100D+01
 Coeff:      0.100D+01
 Gap=     0.318 Goal=   None    Shift=    0.000
 RMSDP=9.24D-06 MaxDP=3.13D-04 DE= 5.24D-05 OVMax= 3.19D-04

 Cycle   9  Pass 1  IDiag  1:
 RMSU=  6.63D-06    CP:  1.00D+00
 E= -706.875812391918     Delta-E=       -0.000000528157 Rises=F Damp=F
 DIIS: error= 4.50D-05 at cycle   2 NSaved=   2.
 NSaved= 2 IEnMin= 2 EnMin= -706.875812391918     IErMin= 2 ErrMin= 4.50D-05
 ErrMax= 4.50D-05  0.00D+00 EMaxC= 1.00D-01 BMatC= 5.58D-07 BMatP= 6.89D-07
 IDIUse=1 WtCom= 1.00D+00 WtEn= 0.00D+00
 Coeff-Com:  0.467D+00 0.533D+00
 Coeff:      0.467D+00 0.533D+00
 Gap=     0.318 Goal=   None    Shift=    0.000
 RMSDP=2.75D-06 MaxDP=1.39D-04 DE=-5.28D-07 OVMax= 1.95D-04

 Cycle  10  Pass 1  IDiag  1:
 RMSU=  2.57D-06    CP:  1.00D+00  8.53D-01
 E= -706.875812884780     Delta-E=       -0.000000492862 Rises=F Damp=F
 DIIS: error= 1.42D-05 at cycle   3 NSaved=   3.
 NSaved= 3 IEnMin= 3 EnMin= -706.875812884780     IErMin= 3 ErrMin= 1.42D-05
 ErrMax= 1.42D-05  0.00D+00 EMaxC= 1.00D-01 BMatC= 4.91D-08 BMatP= 5.58D-07
 IDIUse=1 WtCom= 1.00D+00 WtEn= 0.00D+00
 Coeff-Com: -0.580D-01 0.174D+00 0.884D+00
 Coeff:     -0.580D-01 0.174D+00 0.884D+00
 Gap=     0.318 Goal=   None    Shift=    0.000
 RMSDP=1.36D-06 MaxDP=5.94D-05 DE=-4.93D-07 OVMax= 1.36D-04

 Cycle  11  Pass 1  IDiag  1:
 RMSU=  1.00D-06    CP:  1.00D+00  9.84D-01  1.12D+00
 E= -706.875812953283     Delta-E=       -0.000000068504 Rises=F Damp=F
 DIIS: error= 1.07D-05 at cycle   4 NSaved=   4.
 NSaved= 4 IEnMin= 4 EnMin= -706.875812953283     IErMin= 4 ErrMin= 1.07D-05
 ErrMax= 1.07D-05  0.00D+00 EMaxC= 1.00D-01 BMatC= 1.72D-08 BMatP= 4.91D-08
 IDIUse=1 WtCom= 1.00D+00 WtEn= 0.00D+00
 Coeff-Com: -0.893D-01 0.426D-01 0.512D+00 0.535D+00
 Coeff:     -0.893D-01 0.426D-01 0.512D+00 0.535D+00
 Gap=     0.319 Goal=   None    Shift=    0.000
 RMSDP=5.84D-07 MaxDP=2.45D-05 DE=-6.85D-08 OVMax= 4.06D-05

 Cycle  12  Pass 1  IDiag  1:
 RMSU=  4.69D-07    CP:  1.00D+00  1.02D+00  1.20D+00  9.38D-01
 E= -706.875812973882     Delta-E=       -0.000000020598 Rises=F Damp=F
 DIIS: error= 2.52D-06 at cycle   5 NSaved=   5.
 NSaved= 5 IEnMin= 5 EnMin= -706.875812973882     IErMin= 5 ErrMin= 2.52D-06
 ErrMax= 2.52D-06  0.00D+00 EMaxC= 1.00D-01 BMatC= 1.25D-09 BMatP= 1.72D-08
 IDIUse=1 WtCom= 1.00D+00 WtEn= 0.00D+00
 Coeff-Com: -0.674D-02-0.337D-01-0.127D+00 0.979D-01 0.107D+01
 Coeff:     -0.674D-02-0.337D-01-0.127D+00 0.979D-01 0.107D+01
 Gap=     0.319 Goal=   None    Shift=    0.000
 RMSDP=4.16D-07 MaxDP=1.27D-05 DE=-2.06D-08 OVMax= 4.77D-05

 Cycle  13  Pass 1  IDiag  1:
 RMSU=  1.42D-07    CP:  1.00D+00  1.05D+00  1.28D+00  1.20D+00  1.19D+00
 E= -706.875812978090     Delta-E=       -0.000000004208 Rises=F Damp=F
 DIIS: error= 1.36D-06 at cycle   6 NSaved=   6.
 NSaved= 6 IEnMin= 6 EnMin= -706.875812978090     IErMin= 6 ErrMin= 1.36D-06
 ErrMax= 1.36D-06  0.00D+00 EMaxC= 1.00D-01 BMatC= 3.67D-10 BMatP= 1.25D-09
 IDIUse=1 WtCom= 1.00D+00 WtEn= 0.00D+00
 Coeff-Com:  0.105D-01-0.201D-01-0.128D+00-0.372D-01 0.518D+00 0.657D+00
 Coeff:      0.105D-01-0.201D-01-0.128D+00-0.372D-01 0.518D+00 0.657D+00
 Gap=     0.319 Goal=   None    Shift=    0.000
 RMSDP=1.13D-07 MaxDP=4.75D-06 DE=-4.21D-09 OVMax= 1.37D-05

 Cycle  14  Pass 1  IDiag  1:
 RMSU=  6.62D-08    CP:  1.00D+00  1.06D+00  1.29D+00  1.24D+00  1.31D+00
                    CP:  9.03D-01
 E= -706.875812978617     Delta-E=       -0.000000000527 Rises=F Damp=F
 DIIS: error= 5.08D-07 at cycle   7 NSaved=   7.
 NSaved= 7 IEnMin= 7 EnMin= -706.875812978617     IErMin= 7 ErrMin= 5.08D-07
 ErrMax= 5.08D-07  0.00D+00 EMaxC= 1.00D-01 BMatC= 2.76D-11 BMatP= 3.67D-10
 IDIUse=1 WtCom= 1.00D+00 WtEn= 0.00D+00
 Coeff-Com:  0.364D-02-0.392D-02-0.302D-01-0.241D-01 0.703D-01 0.233D+00
 Coeff-Com:  0.751D+00
 Coeff:      0.364D-02-0.392D-02-0.302D-01-0.241D-01 0.703D-01 0.233D+00
 Coeff:      0.751D+00
 Gap=     0.319 Goal=   None    Shift=    0.000
 RMSDP=3.91D-08 MaxDP=1.68D-06 DE=-5.27D-10 OVMax= 4.47D-06

 Cycle  15  Pass 1  IDiag  1:
 RMSU=  2.49D-08    CP:  1.00D+00  1.06D+00  1.30D+00  1.26D+00  1.34D+00
                    CP:  1.02D+00  1.10D+00
 E= -706.875812978668     Delta-E=       -0.000000000051 Rises=F Damp=F
 DIIS: error= 1.71D-07 at cycle   8 NSaved=   8.
 NSaved= 8 IEnMin= 8 EnMin= -706.875812978668     IErMin= 8 ErrMin= 1.71D-07
 ErrMax= 1.71D-07  0.00D+00 EMaxC= 1.00D-01 BMatC= 5.93D-12 BMatP= 2.76D-11
 IDIUse=1 WtCom= 1.00D+00 WtEn= 0.00D+00
 Coeff-Com: -0.766D-03 0.294D-02 0.166D-01-0.184D-02-0.893D-01-0.509D-01
 Coeff-Com:  0.294D+00 0.829D+00
 Coeff:     -0.766D-03 0.294D-02 0.166D-01-0.184D-02-0.893D-01-0.509D-01
 Coeff:      0.294D+00 0.829D+00
 Gap=     0.319 Goal=   None    Shift=    0.000
 RMSDP=2.37D-08 MaxDP=1.15D-06 DE=-5.09D-11 OVMax= 3.19D-06

 Cycle  16  Pass 1  IDiag  1:
 RMSU=  9.66D-09    CP:  1.00D+00  1.06D+00  1.30D+00  1.26D+00  1.35D+00
                    CP:  1.11D+00  1.34D+00  1.18D+00
 E= -706.875812978688     Delta-E=       -0.000000000020 Rises=F Damp=F
 DIIS: error= 1.09D-07 at cycle   9 NSaved=   9.
 NSaved= 9 IEnMin= 9 EnMin= -706.875812978688     IErMin= 9 ErrMin= 1.09D-07
 ErrMax= 1.09D-07  0.00D+00 EMaxC= 1.00D-01 BMatC= 9.54D-13 BMatP= 5.93D-12
 IDIUse=1 WtCom= 1.00D+00 WtEn= 0.00D+00
 Coeff-Com: -0.994D-03 0.183D-02 0.122D-01 0.440D-02-0.466D-01-0.648D-01
 Coeff-Com: -0.179D-01 0.304D+00 0.808D+00
 Coeff:     -0.994D-03 0.183D-02 0.122D-01 0.440D-02-0.466D-01-0.648D-01
 Coeff:     -0.179D-01 0.304D+00 0.808D+00
 Gap=     0.319 Goal=   None    Shift=    0.000
 RMSDP=1.06D-08 MaxDP=5.26D-07 DE=-2.00D-11 OVMax= 1.53D-06

 Cycle  17  Pass 1  IDiag  1:
 RMSU=  4.43D-09    CP:  1.00D+00  1.06D+00  1.30D+00  1.26D+00  1.35D+00
                    CP:  1.14D+00  1.43D+00  1.37D+00  1.14D+00
 E= -706.875812978688     Delta-E=        0.000000000000 Rises=F Damp=F
 DIIS: error= 2.83D-08 at cycle  10 NSaved=  10.
 NSaved=10 IEnMin= 9 EnMin= -706.875812978688     IErMin=10 ErrMin= 2.83D-08
 ErrMax= 2.83D-08  0.00D+00 EMaxC= 1.00D-01 BMatC= 1.65D-13 BMatP= 9.54D-13
 IDIUse=1 WtCom= 1.00D+00 WtEn= 0.00D+00
 Coeff-Com: -0.183D-03 0.465D-04 0.893D-03 0.206D-02 0.175D-02-0.129D-01
 Coeff-Com: -0.573D-01-0.571D-01 0.243D+00 0.879D+00
 Coeff:     -0.183D-03 0.465D-04 0.893D-03 0.206D-02 0.175D-02-0.129D-01
 Coeff:     -0.573D-01-0.571D-01 0.243D+00 0.879D+00
 Gap=     0.319 Goal=   None    Shift=    0.000
 RMSDP=5.11D-09 MaxDP=2.88D-07 DE= 0.00D+00 OVMax= 7.30D-07

 SCF Done:  E(RwB97XD) =  -706.875812979     A.U. after   17 cycles
            NFock= 17  Conv=0.51D-08     -V/T= 2.0099
 KE= 6.999720217961D+02 PE=-3.015680245908D+03 EE= 9.229682890155D+02
 Leave Link  502 at Fri May 31 11:59:13 2024, MaxMem=  7516192768 cpu:             254.6 elap:              10.7
 (Enter /software/gaussian/g16-c01/avx2/g16/l801.exe)
 DoSCS=F DFT=T ScalE2(SS,OS)=  1.000000  1.000000
 Range of M.O.s used for correlation:     1   262
 NBasis=   262 NAE=    56 NBE=    56 NFC=     0 NFV=     0
 NROrb=    262 NOA=    56 NOB=    56 NVA=   206 NVB=   206
 Leave Link  801 at Fri May 31 11:59:14 2024, MaxMem=  7516192768 cpu:               0.4 elap:               0.0
 (Enter /software/gaussian/g16-c01/avx2/g16/l1101.exe)
 Using compressed storage, NAtomX=    27.
 Will process     28 centers per pass.
 R6Disp: Adding Grimme-D2 dispersion energy 1st derivatives to the gradient.
 Leave Link 1101 at Fri May 31 11:59:14 2024, MaxMem=  7516192768 cpu:               5.4 elap:               0.3
 (Enter /software/gaussian/g16-c01/avx2/g16/l1102.exe)
 Symmetrizing basis deriv contribution to polar:
 IMax=3 JMax=2 DiffMx= 0.00D+00
 Leave Link 1102 at Fri May 31 11:59:15 2024, MaxMem=  7516192768 cpu:               0.5 elap:               0.0
 (Enter /software/gaussian/g16-c01/avx2/g16/l1110.exe)
 Forming Gx(P) for the SCF density, NAtomX=    27.
 Integral derivatives from FoFJK, PRISM(SPDF).
 Do as many integral derivatives as possible in FoFJK.
 G2DrvN: MDV=    7516189905.
 G2DrvN: will do    28 centers at a time, making    1 passes.
 Calling FoFCou, ICntrl=  3107 FMM=F I1Cent=   0 AccDes= 0.00D+00.
 FoFJK:  IHMeth= 1 ICntrl=    3107 DoSepK=T KAlg= 0 I1Cent=           0 FoldK=F
 IRaf=         1 NMat=       1 IRICut=       1 DoRegI=T DoRafI=F ISym2E= 0 IDoP0=0 IntGTp=1.
 FoFCou: FMM=F IPFlag=           0 FMFlag=      100000 FMFlg1=           0
         NFxFlg=           0 DoJE=F BraDBF=F KetDBF=F FulRan=T
         wScrn=  0.000000 ICntrl=      3507 IOpCl=  0 I1Cent=           0 NGrid=           0
         NMat0=    1 NMatS0=      1 NMatT0=    0 NMatD0=    1 NMtDS0=    0 NMtDT0=    0
 Symmetry not used in FoFCou.
 End of G2Drv F.D. properties file   721 does not exist.
 End of G2Drv F.D. properties file   722 does not exist.
 End of G2Drv F.D. properties file   788 does not exist.
 Leave Link 1110 at Fri May 31 11:59:22 2024, MaxMem=  7516192768 cpu:             165.5 elap:               6.9
 (Enter /software/gaussian/g16-c01/avx2/g16/l1002.exe)
 Minotr:  Closed shell wavefunction.
          IDoAtm=111111111111111111111111111
          Direct CPHF calculation.
          Differentiating once with respect to electric field.
                with respect to dipole field.
          Differentiating once with respect to nuclear coordinates.
          Requested convergence is 1.0D-08 RMS, and 1.0D-07 maximum.
          Secondary convergence is 1.0D-12 RMS, and 1.0D-12 maximum.
          NewPWx=T KeepS1=F KeepF1=F KeepIn=T MapXYZ=F SortEE=F KeepMc=T.
         8698 words used for storage of precomputed grid.
 Keep R1 ints in memory in canonical form, NReq=1222315782.
 FoFCou: FMM=F IPFlag=           0 FMFlag=           0 FMFlg1=           0
         NFxFlg=           0 DoJE=F BraDBF=F KetDBF=F FulRan=T
         wScrn=  0.000000 ICntrl=       600 IOpCl=  0 I1Cent=           0 NGrid=           0
         NMat0=    1 NMatS0=  34453 NMatT0=    0 NMatD0=    1 NMtDS0=    0 NMtDT0=    0
 Symmetry not used in FoFCou.
 Two-electron integral symmetry not used.
          MDV=    7516192768 using IRadAn=       1.
          Solving linear equations simultaneously, MaxMat=       0.
          There are    84 degrees of freedom in the 1st order CPHF.  IDoFFX=6 NUNeed=     3.
     81 vectors produced by pass  0 Test12= 1.37D-14 1.19D-09 XBig12= 1.03D+02 5.46D+00.
 AX will form    81 AO Fock derivatives at one time.
     81 vectors produced by pass  1 Test12= 1.37D-14 1.19D-09 XBig12= 8.05D+00 5.41D-01.
     80 vectors produced by pass  2 Test12= 1.37D-14 1.19D-09 XBig12= 1.76D-01 6.14D-02.
     78 vectors produced by pass  3 Test12= 1.37D-14 1.19D-09 XBig12= 2.35D-03 9.36D-03.
     78 vectors produced by pass  4 Test12= 1.37D-14 1.19D-09 XBig12= 1.32D-05 5.28D-04.
     78 vectors produced by pass  5 Test12= 1.37D-14 1.19D-09 XBig12= 4.99D-08 2.78D-05.
     75 vectors produced by pass  6 Test12= 1.37D-14 1.19D-09 XBig12= 1.76D-10 1.64D-06.
     23 vectors produced by pass  7 Test12= 1.37D-14 1.19D-09 XBig12= 7.35D-13 1.07D-07.
      3 vectors produced by pass  8 Test12= 1.37D-14 1.19D-09 XBig12= 2.97D-15 7.27D-09.
 InvSVY:  IOpt=1 It=  1 EMax= 8.88D-15
 Solved reduced A of dimension   577 with    84 vectors.
 FullF1:  Do perturbations      1 to       3.
 Isotropic polarizability for W=    0.000000      139.09 Bohr**3.
 End of Minotr F.D. properties file   721 does not exist.
 End of Minotr F.D. properties file   722 does not exist.
 End of Minotr F.D. properties file   788 does not exist.
 Leave Link 1002 at Fri May 31 11:59:43 2024, MaxMem=  7516192768 cpu:             486.0 elap:              20.3
 (Enter /software/gaussian/g16-c01/avx2/g16/l601.exe)
 Copying SCF densities to generalized density rwf, IOpCl= 0 IROHF=0.

 **********************************************************************

            Population analysis using the SCF Density.

 **********************************************************************

 Alpha  occ. eigenvalues --  -19.32642 -19.30825 -14.48985 -10.44896 -10.36789
 Alpha  occ. eigenvalues --  -10.36370 -10.31603 -10.31494 -10.31395 -10.31212
 Alpha  occ. eigenvalues --  -10.31053 -10.30292 -10.30217 -10.29898 -10.29798
 Alpha  occ. eigenvalues --  -10.29346  -1.21118  -1.08779  -1.07209  -0.96543
 Alpha  occ. eigenvalues --   -0.94182  -0.86737  -0.85828  -0.84297  -0.82531
 Alpha  occ. eigenvalues --   -0.74756  -0.71495  -0.70277  -0.68342  -0.65701
 Alpha  occ. eigenvalues --   -0.60827  -0.60135  -0.58721  -0.57153  -0.56826
 Alpha  occ. eigenvalues --   -0.56153  -0.54178  -0.54003  -0.53003  -0.51880
 Alpha  occ. eigenvalues --   -0.51760  -0.50631  -0.48049  -0.47563  -0.45573
 Alpha  occ. eigenvalues --   -0.44972  -0.44327  -0.43462  -0.41073  -0.40982
 Alpha  occ. eigenvalues --   -0.40056  -0.38855  -0.33963  -0.32408  -0.31066
 Alpha  occ. eigenvalues --   -0.29301
 Alpha virt. eigenvalues --    0.02550   0.04609   0.05927   0.07036   0.08590
 Alpha virt. eigenvalues --    0.08966   0.16047   0.17379   0.17829   0.20186
 Alpha virt. eigenvalues --    0.22652   0.23470   0.23669   0.24454   0.25193
 Alpha virt. eigenvalues --    0.25430   0.26645   0.26779   0.27567   0.27972
 Alpha virt. eigenvalues --    0.30002   0.34580   0.36514   0.36816   0.37493
 Alpha virt. eigenvalues --    0.38584   0.40587   0.41949   0.42746   0.44082
 Alpha virt. eigenvalues --    0.49968   0.51736   0.56739   0.57330   0.58181
 Alpha virt. eigenvalues --    0.59638   0.61329   0.61476   0.61544   0.62357
 Alpha virt. eigenvalues --    0.63363   0.65275   0.65651   0.66855   0.67584
 Alpha virt. eigenvalues --    0.68107   0.68121   0.69039   0.69192   0.69193
 Alpha virt. eigenvalues --    0.69223   0.69550   0.69633   0.70290   0.70711
 Alpha virt. eigenvalues --    0.71943   0.72523   0.74431   0.75729   0.76419
 Alpha virt. eigenvalues --    0.76861   0.80945   0.83844   0.84393   0.85328
 Alpha virt. eigenvalues --    0.87622   0.89716   0.90505   0.92559   0.92777
 Alpha virt. eigenvalues --    0.92864   0.94818   0.94889   0.95206   0.96609
 Alpha virt. eigenvalues --    0.97409   0.97709   0.99634   1.01570   1.02490
 Alpha virt. eigenvalues --    1.03548   1.03858   1.05105   1.05869   1.07400
 Alpha virt. eigenvalues --    1.08244   1.10136   1.11347   1.12875   1.13268
 Alpha virt. eigenvalues --    1.16105   1.18184   1.18982   1.19548   1.22798
 Alpha virt. eigenvalues --    1.25749   1.26494   1.27803   1.29244   1.32023
 Alpha virt. eigenvalues --    1.33536   1.36889   1.37283   1.40660   1.43724
 Alpha virt. eigenvalues --    1.46664   1.47819   1.49136   1.50325   1.51653
 Alpha virt. eigenvalues --    1.52774   1.54638   1.55214   1.55215   1.55599
 Alpha virt. eigenvalues --    1.56322   1.57841   1.58119   1.59269   1.63728
 Alpha virt. eigenvalues --    1.65528   1.69244   1.71428   1.86424   1.86700
 Alpha virt. eigenvalues --    1.86939   1.87051   1.88376   1.90667   1.91779
 Alpha virt. eigenvalues --    1.93394   1.96534   1.96997   2.00313   2.01224
 Alpha virt. eigenvalues --    2.03222   2.03406   2.05291   2.05901   2.06957
 Alpha virt. eigenvalues --    2.07127   2.08236   2.09414   2.09613   2.11566
 Alpha virt. eigenvalues --    2.14844   2.15188   2.16597   2.20351   2.22483
 Alpha virt. eigenvalues --    2.22808   2.22817   2.23989   2.26448   2.32087
 Alpha virt. eigenvalues --    2.32120   2.34388   2.38322   2.38673   2.38726
 Alpha virt. eigenvalues --    2.39373   2.43799   2.51840   2.54174   2.56632
 Alpha virt. eigenvalues --    2.58863   2.65905   2.66359   2.71279   2.73086
 Alpha virt. eigenvalues --    2.73309   2.73835   2.77458   2.80140   2.81375
 Alpha virt. eigenvalues --    2.81598   2.81820   2.81890   2.88140   2.89789
 Alpha virt. eigenvalues --    2.92915   3.02092   3.04044   3.08406   3.12725
 Alpha virt. eigenvalues --    3.16466   3.25750   3.48056   3.49745   3.55152
 Alpha virt. eigenvalues --    3.99915   4.07052   4.18742   4.18869   4.20809
 Alpha virt. eigenvalues --    4.22058   4.24075   4.26131   4.41366   4.43216
 Alpha virt. eigenvalues --    4.48390   4.49550   4.50207   4.76162   4.82050
 Alpha virt. eigenvalues --    4.88065
          Condensed to atoms (all electrons):
               1          2          3          4          5          6
     1  C    4.881487   0.516914  -0.013996  -0.036326  -0.031899   0.555572
     2  C    0.516914   4.995934   0.560953  -0.074368  -0.036595  -0.044332
     3  C   -0.013996   0.560953   4.526047   0.543335  -0.019673  -0.033656
     4  C   -0.036326  -0.074368   0.543335   4.974152   0.532657  -0.043405
     5  C   -0.031899  -0.036595  -0.019673   0.532657   4.870953   0.554150
     6  C    0.555572  -0.044332  -0.033656  -0.043405   0.554150   4.867914
     7  H    0.367038  -0.032436   0.002603   0.000656   0.003647  -0.035781
     8  H   -0.035130   0.365063  -0.036258   0.004381   0.000209   0.003794
     9  H   -0.000008   0.005134  -0.035158   0.363484  -0.036091   0.003913
    10  H    0.003806   0.000543   0.002926  -0.034347   0.369510  -0.036720
    11  H   -0.037230   0.003970   0.000534   0.003651  -0.037026   0.371096
    12  N    0.006997  -0.072011   0.294461  -0.062998   0.004116   0.000193
    13  C    0.000371  -0.007813  -0.062906   0.005041  -0.000133   0.000008
    14  O   -0.000004   0.000257  -0.000265  -0.000051   0.000000  -0.000000
    15  H    0.000000   0.000000   0.000000   0.000000   0.000000   0.000000
    16  O    0.000000   0.000000   0.000000   0.000000   0.000000   0.000000
    17  C    0.000000   0.000000   0.000000   0.000000   0.000000   0.000000
    18  C    0.000000   0.000000   0.000000   0.000000   0.000000   0.000000
    19  C    0.000000   0.000000   0.000000   0.000000   0.000000   0.000000
    20  C    0.000000   0.000000   0.000000   0.000000   0.000000   0.000000
    21  H    0.000000   0.000000   0.000000   0.000000   0.000000   0.000000
    22  C    0.000000   0.000000   0.000000   0.000000   0.000000   0.000000
    23  H    0.000000   0.000000   0.000000   0.000000   0.000000   0.000000
    24  C    0.000000   0.000000   0.000000   0.000000   0.000000   0.000000
    25  H    0.000000   0.000000   0.000000   0.000000   0.000000   0.000000
    26  H    0.000000   0.000000   0.000000   0.000000   0.000000   0.000000
    27  H    0.000000   0.000000   0.000000   0.000000   0.000000   0.000000
               7          8          9         10         11         12
     1  C    0.367038  -0.035130  -0.000008   0.003806  -0.037230   0.006997
     2  C   -0.032436   0.365063   0.005134   0.000543   0.003970  -0.072011
     3  C    0.002603  -0.036258  -0.035158   0.002926   0.000534   0.294461
     4  C    0.000656   0.004381   0.363484  -0.034347   0.003651  -0.062998
     5  C    0.003647   0.000209  -0.036091   0.369510  -0.037026   0.004116
     6  C   -0.035781   0.003794   0.003913  -0.036720   0.371096   0.000193
     7  H    0.525286  -0.004013   0.000012  -0.000147  -0.003887  -0.000106
     8  H   -0.004013   0.528738  -0.000122   0.000012  -0.000130  -0.008488
     9  H    0.000012  -0.000122   0.518718  -0.004284  -0.000121  -0.002390
    10  H   -0.000147   0.000012  -0.004284   0.526121  -0.003918  -0.000094
    11  H   -0.003887  -0.000130  -0.000121  -0.003918   0.529636   0.000003
    12  N   -0.000106  -0.008488  -0.002390  -0.000094   0.000003   6.811226
    13  C   -0.000006   0.003671   0.000117   0.000001  -0.000000   0.579210
    14  O    0.000000   0.000216  -0.000003  -0.000000   0.000000  -0.032359
    15  H    0.000000   0.000000   0.000000   0.000000   0.000000   0.000000
    16  O    0.000000   0.000000   0.000000   0.000000   0.000000   0.000000
    17  C    0.000000   0.000000   0.000000   0.000000   0.000000   0.000000
    18  C    0.000000   0.000000   0.000000   0.000000   0.000000   0.000000
    19  C    0.000000   0.000000   0.000000   0.000000   0.000000   0.000000
    20  C    0.000000   0.000000   0.000000   0.000000   0.000000   0.000000
    21  H    0.000000   0.000000   0.000000   0.000000   0.000000   0.000000
    22  C    0.000000   0.000000   0.000000   0.000000   0.000000   0.000000
    23  H    0.000000   0.000000   0.000000   0.000000   0.000000   0.000000
    24  C    0.000000   0.000000   0.000000   0.000000   0.000000   0.000000
    25  H    0.000000   0.000000   0.000000   0.000000   0.000000   0.000000
    26  H    0.000000   0.000000   0.000000   0.000000   0.000000   0.000000
    27  H    0.000000   0.000000   0.000000   0.000000   0.000000   0.000000
              13         14         15         16         17         18
     1  C    0.000371  -0.000004   0.000000   0.000000   0.000000   0.000000
     2  C   -0.007813   0.000257   0.000000   0.000000   0.000000   0.000000
     3  C   -0.062906  -0.000265   0.000000   0.000000   0.000000   0.000000
     4  C    0.005041  -0.000051   0.000000   0.000000   0.000000   0.000000
     5  C   -0.000133   0.000000   0.000000   0.000000   0.000000   0.000000
     6  C    0.000008  -0.000000   0.000000   0.000000   0.000000   0.000000
     7  H   -0.000006   0.000000   0.000000   0.000000   0.000000   0.000000
     8  H    0.003671   0.000216   0.000000   0.000000   0.000000   0.000000
     9  H    0.000117  -0.000003   0.000000   0.000000   0.000000   0.000000
    10  H    0.000001  -0.000000   0.000000   0.000000   0.000000   0.000000
    11  H   -0.000000   0.000000   0.000000   0.000000   0.000000   0.000000
    12  N    0.579210  -0.032359   0.000000   0.000000   0.000000   0.000000
    13  C    4.242389   0.601482   0.000000   0.000000   0.000000   0.000000
    14  O    0.601482   7.843354   0.000000   0.000000   0.000000   0.000000
    15  H    0.000000   0.000000   0.472457   0.198128  -0.019439   0.000550
    16  O    0.000000   0.000000   0.198128   8.325441   0.211472  -0.044854
    17  C    0.000000   0.000000  -0.019439   0.211472   4.466469   0.519259
    18  C    0.000000   0.000000   0.000550  -0.044854   0.519259   5.045354
    19  C    0.000000   0.000000   0.001489  -0.041569   0.553126  -0.062448
    20  C    0.000000   0.000000   0.000519   0.004288  -0.015468   0.503037
    21  H    0.000000   0.000000   0.004177  -0.005344  -0.041090   0.364569
    22  C    0.000000   0.000000  -0.000081   0.002748  -0.019931  -0.035749
    23  H    0.000000   0.000000  -0.000147  -0.001243  -0.033567   0.005561
    24  C    0.000000   0.000000  -0.000000   0.000030  -0.034635  -0.043581
    25  H    0.000000   0.000000  -0.000009  -0.000042   0.002667  -0.033621
    26  H    0.000000   0.000000   0.000001  -0.000034   0.003028   0.000480
    27  H    0.000000   0.000000  -0.000000   0.000001   0.000602   0.003967
              19         20         21         22         23         24
     1  C    0.000000   0.000000   0.000000   0.000000   0.000000   0.000000
     2  C    0.000000   0.000000   0.000000   0.000000   0.000000   0.000000
     3  C    0.000000   0.000000   0.000000   0.000000   0.000000   0.000000
     4  C    0.000000   0.000000   0.000000   0.000000   0.000000   0.000000
     5  C    0.000000   0.000000   0.000000   0.000000   0.000000   0.000000
     6  C    0.000000   0.000000   0.000000   0.000000   0.000000   0.000000
     7  H    0.000000   0.000000   0.000000   0.000000   0.000000   0.000000
     8  H    0.000000   0.000000   0.000000   0.000000   0.000000   0.000000
     9  H    0.000000   0.000000   0.000000   0.000000   0.000000   0.000000
    10  H    0.000000   0.000000   0.000000   0.000000   0.000000   0.000000
    11  H    0.000000   0.000000   0.000000   0.000000   0.000000   0.000000
    12  N    0.000000   0.000000   0.000000   0.000000   0.000000   0.000000
    13  C    0.000000   0.000000   0.000000   0.000000   0.000000   0.000000
    14  O    0.000000   0.000000   0.000000   0.000000   0.000000   0.000000
    15  H    0.001489   0.000519   0.004177  -0.000081  -0.000147  -0.000000
    16  O   -0.041569   0.004288  -0.005344   0.002748  -0.001243   0.000030
    17  C    0.553126  -0.015468  -0.041090  -0.019931  -0.033567  -0.034635
    18  C   -0.062448   0.503037   0.364569  -0.035749   0.005561  -0.043581
    19  C    4.966957  -0.034882   0.004871   0.532656   0.362540  -0.042184
    20  C   -0.034882   4.889473  -0.037249  -0.033658  -0.000031   0.555522
    21  H    0.004871  -0.037249   0.559009   0.000227  -0.000130   0.004230
    22  C    0.532656  -0.033658   0.000227   4.867901  -0.039518   0.552283
    23  H    0.362540  -0.000031  -0.000130  -0.039518   0.526888   0.004151
    24  C   -0.042184   0.555522   0.004230   0.552283   0.004151   4.884180
    25  H    0.000447   0.369058  -0.004614   0.003881   0.000012  -0.037627
    26  H   -0.036390   0.003888   0.000011   0.372718  -0.004459  -0.037726
    27  H    0.003862  -0.038474  -0.000144  -0.038646  -0.000133   0.372147
              25         26         27
     1  C    0.000000   0.000000   0.000000
     2  C    0.000000   0.000000   0.000000
     3  C    0.000000   0.000000   0.000000
     4  C    0.000000   0.000000   0.000000
     5  C    0.000000   0.000000   0.000000
     6  C    0.000000   0.000000   0.000000
     7  H    0.000000   0.000000   0.000000
     8  H    0.000000   0.000000   0.000000
     9  H    0.000000   0.000000   0.000000
    10  H    0.000000   0.000000   0.000000
    11  H    0.000000   0.000000   0.000000
    12  N    0.000000   0.000000   0.000000
    13  C    0.000000   0.000000   0.000000
    14  O    0.000000   0.000000   0.000000
    15  H   -0.000009   0.000001  -0.000000
    16  O   -0.000042  -0.000034   0.000001
    17  C    0.002667   0.003028   0.000602
    18  C   -0.033621   0.000480   0.003967
    19  C    0.000447  -0.036390   0.003862
    20  C    0.369058   0.003888  -0.038474
    21  H   -0.004614   0.000011  -0.000144
    22  C    0.003881   0.372718  -0.038646
    23  H    0.000012  -0.004459  -0.000133
    24  C   -0.037627  -0.037726   0.372147
    25  H    0.534766  -0.000153  -0.003997
    26  H   -0.000153   0.529150  -0.003919
    27  H   -0.003997  -0.003919   0.541120
 Mulliken charges:
               1
     1  C   -0.177593
     2  C   -0.181214
     3  C    0.271051
     4  C   -0.175863
     5  C   -0.173825
     6  C   -0.162744
     7  H    0.177136
     8  H    0.178057
     9  H    0.186799
    10  H    0.176593
    11  H    0.173423
    12  N   -0.517759
    13  C    0.638568
    14  O   -0.412629
    15  H    0.342355
    16  O   -0.649022
    17  C    0.407508
    18  C   -0.222522
    19  C   -0.208475
    20  C   -0.166024
    21  H    0.151478
    22  C   -0.164831
    23  H    0.180076
    24  C   -0.176792
    25  H    0.169231
    26  H    0.173406
    27  H    0.163613
 Sum of Mulliken charges =  -0.00000
 Mulliken charges with hydrogens summed into heavy atoms:
               1
     1  C   -0.000457
     2  C   -0.003157
     3  C    0.271051
     4  C    0.010936
     5  C    0.002768
     6  C    0.010679
    12  N   -0.517759
    13  C    0.638568
    14  O   -0.412629
    16  O   -0.306667
    17  C    0.407508
    18  C   -0.071045
    19  C   -0.028399
    20  C    0.003207
    22  C    0.008575
    24  C   -0.013179
 APT charges:
               1
     1  C    0.007694
     2  C   -0.122818
     3  C    0.609244
     4  C   -0.115948
     5  C    0.033084
     6  C   -0.076181
     7  H    0.028298
     8  H    0.039464
     9  H    0.056361
    10  H    0.029153
    11  H    0.030631
    12  N   -1.040601
    13  C    1.400338
    14  O   -0.878720
    15  H    0.203292
    16  O   -0.616231
    17  C    0.557893
    18  C   -0.138501
    19  C   -0.151886
    20  C    0.047359
    21  H    0.027226
    22  C    0.057492
    23  H    0.057004
    24  C   -0.131676
    25  H    0.028908
    26  H    0.031229
    27  H    0.027894
 Sum of APT charges =   0.00000
 APT charges with hydrogens summed into heavy atoms:
               1
     1  C    0.035991
     2  C   -0.083355
     3  C    0.609244
     4  C   -0.059587
     5  C    0.062236
     6  C   -0.045550
    12  N   -1.040601
    13  C    1.400338
    14  O   -0.878720
    16  O   -0.412939
    17  C    0.557893
    18  C   -0.111275
    19  C   -0.094881
    20  C    0.076267
    22  C    0.088721
    24  C   -0.103782
 Electronic spatial extent (au):  <R**2>=         255048.0564
 Charge=             -0.0000 electrons
 Dipole moment (field-independent basis, Debye):
    X=             -3.4172    Y=              1.0008    Z=              0.7995  Tot=              3.6494
 Quadrupole moment (field-independent basis, Debye-Ang):
   XX=           -158.8545   YY=            -81.9905   ZZ=            -92.1538
   XY=             34.0862   XZ=             27.4695   YZ=              1.0635
 Traceless Quadrupole moment (field-independent basis, Debye-Ang):
   XX=            -47.8549   YY=             29.0091   ZZ=             18.8458
   XY=             34.0862   XZ=             27.4695   YZ=              1.0635
 Octapole moment (field-independent basis, Debye-Ang**2):
  XXX=          -7768.1720  YYY=            -38.1875  ZZZ=           -160.0905  XYY=          -1437.0693
  XXY=            996.7721  XXZ=           1059.0086  XZZ=          -1521.4226  YZZ=             -4.9291
  YYZ=            -50.6608  XYZ=             73.8081
 Hexadecapole moment (field-independent basis, Debye-Ang**3):
 XXXX=        -478464.4472 YYYY=           -542.5551 ZZZZ=           -924.4231 XXXY=          27302.2468
 XXXZ=          38389.5062 YYYX=          -1648.2876 YYYZ=            -93.1291 ZZZX=          -6654.9702
 ZZZY=            -64.2684 XXYY=         -52770.4975 XXZZ=         -55622.7909 YYZZ=           -240.0382
 XXYZ=           2662.1136 YYXZ=          -2122.6707 ZZXY=           -245.9413
 N-N= 6.858641221181D+02 E-N=-3.015680247997D+03  KE= 6.999720217961D+02
  Exact polarizability:     189.257     -30.321     137.788      22.369       7.478      90.216
 Approx polarizability:     209.767     -38.611     169.371      22.806       9.862     107.454
 No NMR shielding tensors so no spin-rotation constants.
 Leave Link  601 at Fri May 31 11:59:44 2024, MaxMem=  7516192768 cpu:               3.8 elap:               0.2
 (Enter /software/gaussian/g16-c01/avx2/g16/l701.exe)
 ... and contract with generalized density number  0.
 Compute integral second derivatives.
 R6Disp: Adding Grimme-D2 dispersion energy 2nd derivatives to the Hessian.
 Leave Link  701 at Fri May 31 11:59:45 2024, MaxMem=  7516192768 cpu:               4.2 elap:               0.2
 (Enter /software/gaussian/g16-c01/avx2/g16/l702.exe)
 L702 exits ... SP integral derivatives will be done elsewhere.
 Leave Link  702 at Fri May 31 11:59:45 2024, MaxMem=  7516192768 cpu:               0.4 elap:               0.0
 (Enter /software/gaussian/g16-c01/avx2/g16/l703.exe)
 Integral derivatives from FoFJK, PRISM(SPDF).
 Compute integral second derivatives, UseDBF=F ICtDFT=           0.
 Calling FoFJK, ICntrl=    100127 FMM=F ISym2X=0 I1Cent= 0 IOpClX= 0 NMat=1 NMatS=1 NMatT=0.
 FoFJK:  IHMeth= 1 ICntrl=  100127 DoSepK=T KAlg= 0 I1Cent=           0 FoldK=F
 IRaf=         1 NMat=       1 IRICut=       1 DoRegI=T DoRafI=F ISym2E= 0 IDoP0=0 IntGTp=1.
 FoFCou: FMM=F IPFlag=           0 FMFlag=      100000 FMFlg1=         800
         NFxFlg=           0 DoJE=F BraDBF=F KetDBF=F FulRan=T
         wScrn=  0.000000 ICntrl=    100527 IOpCl=  0 I1Cent=           0 NGrid=           0
         NMat0=    1 NMatS0=      1 NMatT0=    0 NMatD0=    1 NMtDS0=    0 NMtDT0=    0
 Symmetry not used in FoFCou.
 Leave Link  703 at Fri May 31 12:00:07 2024, MaxMem=  7516192768 cpu:             515.9 elap:              21.6
 (Enter /software/gaussian/g16-c01/avx2/g16/l716.exe)
 Dipole        =-1.34443218D+00 3.93750997D-01 3.14559559D-01
 Polarizability= 1.89257473D+02-3.03212150D+01 1.37788272D+02
                 2.23685238D+01 7.47825528D+00 9.02159743D+01
 Full mass-weighted force constant matrix:
 Low frequencies --- -660.2373  -50.3284   -3.7638   -0.0809   -0.0011   -0.0009
 Low frequencies ---   -0.0007    0.0492    0.0634
 ******    4 imaginary frequencies (negative Signs) ****** 
 Diagonal vibrational polarizability:
       31.7439434     110.2216811    1548.6139695
 Harmonic frequencies (cm**-1), IR intensities (KM/Mole), Raman scattering
 activities (A**4/AMU), depolarization ratios for plane and unpolarized
 incident light, reduced masses (AMU), force constants (mDyne/A),
 and normal coordinates:
                      1                      2                      3
                      A                      A                      A
 Frequencies --   -660.2219               -40.9680                -3.0727
 Red. masses --      1.0553                 3.4832                 7.9743
 Frc consts  --      0.2710                 0.0034                 0.0000
 IR Inten    --      1.8157                 0.0156                 0.5445
  Atom  AN      X      Y      Z        X      Y      Z        X      Y      Z
     1   6    -0.00   0.00   0.00     0.00  -0.03  -0.12    -0.02  -0.03  -0.28
     2   6    -0.00   0.00   0.00     0.00  -0.02  -0.10    -0.01  -0.01  -0.10
     3   6     0.00  -0.00  -0.00    -0.00   0.00   0.02     0.00   0.00   0.03
     4   6     0.00  -0.00  -0.00    -0.00   0.01   0.13     0.00  -0.00  -0.01
     5   6     0.00   0.00  -0.00    -0.00  -0.01   0.11    -0.01  -0.02  -0.19
     6   6    -0.00   0.00  -0.00     0.00  -0.03  -0.01    -0.02  -0.03  -0.33
     7   1    -0.00   0.00   0.00     0.01  -0.05  -0.21    -0.03  -0.04  -0.38
     8   1    -0.00   0.00   0.00     0.01  -0.02  -0.19    -0.01  -0.01  -0.06
     9   1     0.00  -0.00  -0.00    -0.01   0.02   0.23     0.01   0.01   0.09
    10   1     0.00  -0.00  -0.00    -0.01  -0.00   0.20    -0.01  -0.02  -0.23
    11   1    -0.00   0.00   0.00     0.00  -0.04  -0.02    -0.03  -0.05  -0.47
    12   7     0.00  -0.00  -0.00    -0.00   0.02   0.04     0.01   0.02   0.22
    13   6    -0.00  -0.00   0.00     0.00   0.02  -0.02     0.01   0.03   0.31
    14   8    -0.00  -0.00   0.00     0.00   0.02  -0.07     0.02   0.04   0.42
    15   1     0.84  -0.53   0.09    -0.04  -0.01   0.05     0.00  -0.00  -0.02
    16   8    -0.05   0.03   0.01    -0.05  -0.01   0.05     0.00  -0.00  -0.02
    17   6    -0.00  -0.00  -0.00    -0.02  -0.00   0.03     0.00  -0.00  -0.02
    18   6    -0.00  -0.00  -0.00     0.12   0.10  -0.09     0.00  -0.00  -0.02
    19   6    -0.00   0.01  -0.00    -0.14  -0.10   0.11     0.00  -0.00  -0.02
    20   6    -0.00  -0.00  -0.00     0.15   0.11  -0.12    -0.00  -0.00  -0.02
    21   1     0.01   0.02   0.01     0.23   0.20  -0.17    -0.00  -0.00  -0.02
    22   6    -0.00  -0.00  -0.00    -0.09  -0.09   0.07     0.00  -0.00  -0.02
    23   1    -0.00   0.01  -0.01    -0.29  -0.21   0.23     0.00  -0.00  -0.02
    24   6    -0.00  -0.00  -0.00     0.05   0.01  -0.04     0.00  -0.00  -0.02
    25   1     0.00   0.00  -0.00     0.29   0.21  -0.23    -0.00  -0.00  -0.02
    26   1    -0.00  -0.00   0.00    -0.20  -0.18   0.15     0.00  -0.00  -0.02
    27   1     0.00   0.00  -0.00     0.08   0.03  -0.07     0.00  -0.00  -0.02
                      4                      5                      6
                      A                      A                      A
 Frequencies --     -0.0675                11.2903                51.9456
 Red. masses --      7.7438                 6.9903                 4.1739
 Frc consts  --      0.0000                 0.0005                 0.0066
 IR Inten    --      0.0000                 0.4152                 0.0650
  Atom  AN      X      Y      Z        X      Y      Z        X      Y      Z
     1   6    -0.17  -0.00  -0.01     0.12  -0.17   0.08    -0.01   0.03   0.14
     2   6    -0.17  -0.00  -0.01     0.11  -0.03   0.06    -0.00   0.01   0.12
     3   6    -0.17  -0.00  -0.01    -0.03   0.01  -0.01     0.00  -0.01  -0.03
     4   6    -0.17  -0.00  -0.01    -0.14  -0.08  -0.07     0.01  -0.02  -0.16
     5   6    -0.17  -0.00  -0.01    -0.12  -0.21  -0.05     0.01   0.00  -0.14
     6   6    -0.17  -0.00  -0.01     0.01  -0.26   0.03    -0.00   0.03   0.01
     7   1    -0.17  -0.00  -0.01     0.23  -0.20   0.14    -0.01   0.05   0.25
     8   1    -0.17  -0.00  -0.01     0.19   0.04   0.10    -0.01   0.02   0.22
     9   1    -0.17  -0.00  -0.01    -0.24  -0.04  -0.13     0.01  -0.03  -0.27
    10   1    -0.17  -0.00  -0.01    -0.21  -0.29  -0.09     0.01  -0.00  -0.24
    11   1    -0.17  -0.00  -0.01     0.03  -0.37   0.05    -0.00   0.04   0.02
    12   7    -0.17  -0.00  -0.01    -0.05   0.15  -0.04     0.00  -0.03  -0.05
    13   6    -0.17  -0.00  -0.01     0.02   0.27  -0.02    -0.00  -0.03   0.02
    14   8    -0.17  -0.00  -0.01     0.07   0.38  -0.00    -0.00  -0.04   0.08
    15   1     0.21   0.00   0.01    -0.00  -0.02   0.00    -0.02   0.20   0.03
    16   8     0.21   0.00   0.01    -0.00  -0.02   0.00    -0.02   0.20   0.01
    17   6     0.21   0.00   0.01    -0.00  -0.02   0.00    -0.01   0.10   0.01
    18   6     0.21   0.00   0.01     0.00  -0.02   0.00     0.12   0.09   0.02
    19   6     0.21   0.00   0.01    -0.00  -0.02   0.00    -0.13  -0.01  -0.02
    20   6     0.21   0.00   0.01     0.00  -0.02  -0.00     0.14  -0.05   0.02
    21   1     0.21   0.00   0.01     0.01  -0.01  -0.00     0.24   0.20   0.03
    22   6     0.21   0.00   0.01    -0.00  -0.02   0.00    -0.11  -0.15  -0.03
    23   1     0.21   0.00   0.01    -0.01  -0.02   0.00    -0.26  -0.01  -0.03
    24   6     0.21   0.00   0.01     0.00  -0.02   0.00     0.02  -0.17  -0.01
    25   1     0.21   0.00   0.01     0.01  -0.02  -0.00     0.26  -0.05   0.03
    26   1     0.21   0.00   0.01    -0.01  -0.02   0.00    -0.22  -0.26  -0.04
    27   1     0.21   0.00   0.01     0.00  -0.02  -0.00     0.02  -0.29  -0.00
                      7                      8                      9
                      A                      A                      A
 Frequencies --     56.1874                68.6628                89.4903
 Red. masses --      7.4387                 4.5667                 7.9079
 Frc consts  --      0.0138                 0.0127                 0.0373
 IR Inten    --      0.0851                 0.3432                 2.1418
  Atom  AN      X      Y      Z        X      Y      Z        X      Y      Z
     1   6     0.00   0.00   0.02     0.00  -0.01  -0.02    -0.23   0.05   0.01
     2   6     0.01   0.03   0.24     0.00  -0.00  -0.01    -0.20  -0.13   0.03
     3   6     0.01   0.03   0.22    -0.00  -0.00   0.01    -0.05  -0.19   0.02
     4   6     0.00   0.00   0.02    -0.00   0.00   0.03     0.08  -0.09   0.01
     5   6    -0.01  -0.02  -0.21    -0.00  -0.00   0.03     0.06   0.08  -0.01
     6   6    -0.01  -0.03  -0.22    -0.00  -0.01   0.01    -0.09   0.15  -0.01
     7   1     0.00   0.00   0.02     0.00  -0.01  -0.04    -0.35   0.10   0.01
     8   1     0.02   0.05   0.42     0.00  -0.01  -0.03    -0.30  -0.20   0.04
     9   1     0.00   0.00   0.02    -0.00   0.00   0.05     0.20  -0.14   0.01
    10   1    -0.02  -0.05  -0.38    -0.00  -0.00   0.05     0.16   0.16  -0.03
    11   1    -0.02  -0.05  -0.40    -0.00  -0.01   0.00    -0.11   0.28  -0.03
    12   7     0.02   0.05   0.40    -0.00   0.00   0.02    -0.04  -0.31   0.04
    13   6    -0.00  -0.00  -0.02    -0.00   0.00   0.00     0.12  -0.00  -0.01
    14   8    -0.02  -0.04  -0.37     0.00   0.01  -0.01     0.29   0.35  -0.06
    15   1     0.00  -0.00  -0.00     0.20   0.04  -0.21    -0.00   0.00   0.00
    16   8     0.00  -0.00   0.00     0.21   0.06  -0.20    -0.00   0.00   0.00
    17   6     0.00  -0.00   0.00     0.11   0.03  -0.11    -0.00   0.00   0.00
    18   6    -0.00  -0.00  -0.00     0.04   0.05  -0.13     0.00   0.00   0.00
    19   6     0.00   0.00   0.00     0.05  -0.02   0.04    -0.00   0.00  -0.00
    20   6    -0.00   0.00  -0.00    -0.12   0.00   0.01     0.00  -0.00   0.00
    21   1    -0.00  -0.00  -0.00     0.12   0.11  -0.29     0.00   0.00   0.00
    22   6     0.00   0.00   0.00    -0.12  -0.06   0.19    -0.00  -0.00  -0.00
    23   1     0.00  -0.00   0.00     0.11  -0.03   0.06    -0.00   0.00  -0.00
    24   6     0.00   0.00  -0.00    -0.21  -0.06   0.18     0.00  -0.00  -0.00
    25   1    -0.00   0.00  -0.00    -0.20   0.01   0.01     0.00  -0.00   0.00
    26   1     0.00   0.00   0.00    -0.20  -0.12   0.34    -0.00  -0.00  -0.00
    27   1     0.00   0.00  -0.00    -0.38  -0.14   0.34     0.00  -0.00  -0.00
                     10                     11                     12
                      A                      A                      A
 Frequencies --    246.8449               253.5722               389.7987
 Red. masses --      5.3779                 4.6424                 6.0505
 Frc consts  --      0.1931                 0.1759                 0.5417
 IR Inten    --      0.1459                 0.5218                10.8630
  Atom  AN      X      Y      Z        X      Y      Z        X      Y      Z
     1   6    -0.00   0.00   0.00    -0.00   0.00   0.00    -0.03  -0.02   0.00
     2   6    -0.01  -0.03  -0.26    -0.00   0.00   0.00     0.01  -0.25   0.03
     3   6    -0.01  -0.02  -0.15    -0.00  -0.00   0.00     0.02  -0.24   0.03
     4   6    -0.01  -0.03  -0.27     0.00  -0.00  -0.00     0.18  -0.17   0.01
     5   6    -0.00  -0.00  -0.03     0.00  -0.00  -0.00     0.20   0.06  -0.02
     6   6     0.01   0.03   0.27    -0.00   0.00   0.00     0.12   0.10  -0.02
     7   1     0.00   0.01   0.07    -0.00   0.00   0.01    -0.22   0.05   0.01
     8   1    -0.02  -0.04  -0.34    -0.00   0.00   0.01    -0.08  -0.32   0.04
     9   1    -0.02  -0.04  -0.34     0.00  -0.00  -0.01     0.41  -0.27   0.01
    10   1     0.00   0.00   0.03     0.00  -0.00  -0.00     0.30   0.13  -0.03
    11   1     0.03   0.07   0.62    -0.00   0.00   0.00     0.10   0.21  -0.03
    12   7     0.02   0.04   0.34     0.00  -0.00  -0.00    -0.09   0.24  -0.02
    13   6     0.01   0.01   0.10    -0.00  -0.00   0.00    -0.13   0.18  -0.01
    14   8    -0.00  -0.01  -0.06    -0.00  -0.00   0.00    -0.22   0.05   0.01
    15   1    -0.00   0.00  -0.00     0.18   0.08  -0.16     0.00   0.00  -0.00
    16   8     0.00   0.00  -0.00     0.20   0.18  -0.19     0.00   0.00  -0.00
    17   6    -0.00   0.00   0.00    -0.06  -0.06   0.05     0.00   0.00   0.00
    18   6    -0.00  -0.00   0.00    -0.15  -0.14   0.13    -0.00   0.00   0.00
    19   6    -0.00   0.00  -0.00    -0.15  -0.14   0.15    -0.00   0.00  -0.00
    20   6    -0.00  -0.00   0.00    -0.03  -0.01   0.01     0.00  -0.00   0.00
    21   1     0.00   0.00   0.00    -0.23  -0.21   0.20    -0.00  -0.00   0.00
    22   6     0.00  -0.00  -0.00    -0.02  -0.02   0.03    -0.00   0.00  -0.00
    23   1     0.00   0.00  -0.00    -0.22  -0.22   0.23    -0.00   0.00  -0.00
    24   6     0.00  -0.00   0.00     0.13   0.13  -0.13     0.00  -0.00  -0.00
    25   1     0.00  -0.00   0.00    -0.00   0.02  -0.03    -0.00  -0.00   0.00
    26   1     0.00   0.00  -0.00     0.00   0.01   0.02    -0.00  -0.00  -0.00
    27   1     0.00  -0.00  -0.00     0.36   0.33  -0.34    -0.00  -0.00  -0.00
                     13                     14                     15
                      A                      A                      A
 Frequencies --    422.0276               423.5636               453.9621
 Red. masses --      2.6394                 3.0014                 4.6787
 Frc consts  --      0.2770                 0.3173                 0.5681
 IR Inten    --      0.3927                 0.0013                 2.0331
  Atom  AN      X      Y      Z        X      Y      Z        X      Y      Z
     1   6     0.00  -0.00  -0.00     0.01   0.03   0.21    -0.00   0.00   0.01
     2   6     0.00  -0.00  -0.00    -0.01  -0.02  -0.21    -0.00   0.00   0.01
     3   6    -0.00  -0.00   0.00     0.00   0.00   0.00     0.00  -0.00  -0.00
     4   6    -0.00   0.00   0.00     0.01   0.03   0.21     0.00  -0.00  -0.01
     5   6    -0.00  -0.00   0.00    -0.01  -0.02  -0.21     0.00   0.00  -0.01
     6   6     0.00  -0.00  -0.00    -0.00  -0.00  -0.00    -0.00   0.00  -0.00
     7   1     0.00  -0.00  -0.00     0.02   0.05   0.45    -0.00   0.00   0.01
     8   1     0.00  -0.00  -0.00    -0.02  -0.05  -0.45    -0.00   0.00   0.01
     9   1    -0.00   0.00   0.00     0.02   0.05   0.44     0.00  -0.00  -0.02
    10   1    -0.00  -0.00   0.00    -0.02  -0.05  -0.45     0.00  -0.00  -0.01
    11   1     0.00  -0.00  -0.00    -0.00  -0.00  -0.01    -0.00   0.00   0.00
    12   7    -0.00   0.00   0.00    -0.00  -0.00  -0.01     0.00  -0.00  -0.00
    13   6     0.00   0.00  -0.00     0.00   0.00   0.00    -0.00  -0.00   0.00
    14   8     0.00   0.00  -0.00     0.00   0.00   0.00    -0.00  -0.00   0.00
    15   1    -0.00   0.01  -0.01    -0.00  -0.00   0.00    -0.15   0.34   0.27
    16   8     0.00  -0.00  -0.01    -0.00   0.00   0.00    -0.20   0.30   0.05
    17   6    -0.01  -0.01   0.01    -0.00  -0.00   0.00     0.00  -0.20  -0.04
    18   6    -0.12  -0.10   0.11     0.00  -0.00  -0.00     0.06  -0.17  -0.11
    19   6     0.12   0.10  -0.11     0.00  -0.00   0.00     0.12  -0.14  -0.00
    20   6     0.12   0.10  -0.11    -0.00   0.00  -0.00    -0.03   0.00  -0.08
    21   1    -0.25  -0.21   0.24     0.00   0.00  -0.00     0.12  -0.15  -0.30
    22   6    -0.12  -0.10   0.11     0.00   0.00   0.00     0.09   0.04   0.09
    23   1     0.30   0.26  -0.28     0.00  -0.00   0.00     0.39  -0.16   0.03
    24   6    -0.00  -0.01   0.01    -0.00   0.00   0.00    -0.02   0.04   0.08
    25   1     0.32   0.27  -0.30     0.00   0.00  -0.00    -0.08   0.14  -0.25
    26   1    -0.27  -0.23   0.24     0.00   0.00  -0.00     0.21   0.16   0.11
    27   1     0.01   0.00  -0.01     0.00   0.00   0.00    -0.05   0.13   0.11
                     16                     17                     18
                      A                      A                      A
 Frequencies --    473.8514               498.1396               513.5465
 Red. masses --      8.6322                 2.0628                 3.0847
 Frc consts  --      1.1420                 0.3016                 0.4793
 IR Inten    --      1.2720                17.1736                 2.1391
  Atom  AN      X      Y      Z        X      Y      Z        X      Y      Z
     1   6     0.22  -0.09  -0.00     0.00  -0.00  -0.00    -0.01  -0.02  -0.14
     2   6     0.13   0.00  -0.01     0.00  -0.00  -0.00     0.00  -0.00  -0.00
     3   6    -0.16   0.07   0.00    -0.00   0.00  -0.00     0.02   0.04   0.31
     4   6     0.07   0.22  -0.03    -0.00   0.00   0.00    -0.00  -0.00  -0.00
     5   6     0.12   0.10  -0.02    -0.00   0.00   0.00    -0.01  -0.02  -0.13
     6   6     0.33  -0.00  -0.02    -0.00  -0.00  -0.00     0.01   0.02   0.19
     7   1     0.15  -0.06   0.00     0.00  -0.00  -0.00    -0.03  -0.06  -0.49
     8   1     0.35   0.18  -0.04     0.00  -0.00  -0.00    -0.02  -0.04  -0.36
     9   1     0.18   0.17  -0.03    -0.00   0.00   0.00    -0.02  -0.04  -0.35
    10   1    -0.06  -0.04   0.01    -0.00   0.00   0.00    -0.03  -0.06  -0.49
    11   1     0.33  -0.03  -0.01     0.00  -0.00  -0.00     0.01   0.03   0.25
    12   7    -0.27  -0.29   0.05    -0.00   0.00   0.00    -0.01  -0.01  -0.11
    13   6    -0.30  -0.24   0.04    -0.00   0.00  -0.00     0.00   0.00   0.03
    14   8    -0.11   0.20  -0.02     0.00   0.00  -0.00    -0.00  -0.00  -0.01
    15   1     0.00  -0.00  -0.00     0.04  -0.06  -0.05     0.00   0.00   0.00
    16   8     0.00  -0.00   0.00     0.09   0.01  -0.03     0.00   0.00   0.00
    17   6     0.00   0.00  -0.00    -0.13  -0.10   0.15     0.00  -0.00   0.00
    18   6    -0.00   0.00  -0.00    -0.02   0.02   0.02    -0.00   0.00  -0.00
    19   6    -0.00  -0.00   0.00    -0.03  -0.00   0.01     0.00  -0.00  -0.00
    20   6    -0.00   0.00  -0.00     0.03   0.04  -0.03    -0.00   0.00  -0.00
    21   1    -0.00  -0.00   0.00     0.28   0.28  -0.27    -0.00   0.00  -0.00
    22   6    -0.00  -0.00   0.00     0.04   0.04  -0.07    -0.00  -0.00  -0.00
    23   1    -0.00  -0.00   0.00     0.18   0.22  -0.24    -0.00   0.00  -0.00
    24   6     0.00   0.00  -0.00    -0.10  -0.08   0.06    -0.00  -0.00  -0.00
    25   1    -0.00   0.00   0.00     0.33   0.26  -0.26     0.00   0.00  -0.00
    26   1    -0.00  -0.00   0.00     0.31   0.27  -0.33     0.00   0.00  -0.00
    27   1    -0.00   0.00  -0.00    -0.02  -0.03  -0.01    -0.00  -0.00  -0.00
                     19                     20                     21
                      A                      A                      A
 Frequencies --    515.7688               572.6421               627.9833
 Red. masses --      6.6046                12.0679                 6.2536
 Frc consts  --      1.0352                 2.3316                 1.4530
 IR Inten    --      3.0463                28.3435                 0.3512
  Atom  AN      X      Y      Z        X      Y      Z        X      Y      Z
     1   6    -0.00   0.00   0.00     0.00   0.01   0.04     0.00  -0.00  -0.00
     2   6    -0.00   0.00   0.00    -0.00  -0.00  -0.02     0.00  -0.00  -0.00
     3   6    -0.00  -0.00  -0.00    -0.00  -0.01  -0.07    -0.00   0.00   0.00
     4   6     0.00  -0.00  -0.00    -0.00  -0.00  -0.02    -0.00   0.00   0.00
     5   6     0.00   0.00  -0.00     0.00   0.01   0.05    -0.00   0.00   0.00
     6   6    -0.00   0.00  -0.00    -0.00  -0.01  -0.06     0.00  -0.00   0.00
     7   1    -0.00   0.00   0.01     0.01   0.02   0.13     0.00  -0.00  -0.00
     8   1    -0.00   0.00   0.01     0.00   0.00   0.01     0.00  -0.00  -0.00
     9   1     0.00  -0.00  -0.00     0.00   0.00   0.02    -0.00   0.00   0.00
    10   1     0.00   0.00  -0.00     0.01   0.02   0.16    -0.00   0.00   0.00
    11   1    -0.00   0.00  -0.00    -0.01  -0.01  -0.09     0.00  -0.00   0.00
    12   7     0.00  -0.00  -0.00    -0.01  -0.03  -0.28    -0.00   0.00   0.00
    13   6     0.00  -0.00   0.00     0.05   0.10   0.85    -0.00   0.00  -0.00
    14   8    -0.00  -0.00   0.00    -0.02  -0.04  -0.34     0.00   0.00  -0.00
    15   1     0.18   0.16   0.39     0.00  -0.00  -0.00    -0.02   0.06   0.05
    16   8     0.23   0.08   0.34    -0.00   0.00  -0.00    -0.02   0.05   0.03
    17   6     0.19  -0.02   0.12    -0.00  -0.00   0.00    -0.04   0.11   0.05
    18   6    -0.08   0.06  -0.03     0.00  -0.00   0.00    -0.24   0.15  -0.11
    19   6     0.04  -0.16  -0.12    -0.00   0.00   0.00     0.09   0.16   0.23
    20   6    -0.16   0.11  -0.06     0.00  -0.00  -0.00    -0.09  -0.21  -0.27
    21   1    -0.24  -0.13  -0.24     0.00   0.00   0.00    -0.17   0.24   0.01
    22   6    -0.04  -0.10  -0.11     0.00   0.00  -0.00     0.27  -0.21   0.11
    23   1    -0.17  -0.12  -0.17     0.00   0.00  -0.00    -0.06   0.24   0.13
    24   6    -0.21   0.03  -0.24    -0.00  -0.00   0.00     0.04  -0.12  -0.06
    25   1    -0.09   0.01   0.05     0.00  -0.00  -0.00     0.07  -0.26  -0.20
    26   1    -0.01  -0.04   0.15     0.00   0.00  -0.00     0.23  -0.26  -0.01
    27   1    -0.23   0.02  -0.22    -0.00  -0.00   0.00    -0.14   0.30   0.08
                     22                     23                     24
                      A                      A                      A
 Frequencies --    635.8448               648.2208               658.3221
 Red. masses --      6.8181                10.1239                 1.5462
 Frc consts  --      1.6241                 2.5064                 0.3948
 IR Inten    --      4.5486                27.5663                55.4526
  Atom  AN      X      Y      Z        X      Y      Z        X      Y      Z
     1   6     0.22   0.29  -0.05     0.13   0.01  -0.01    -0.00   0.00   0.00
     2   6     0.26  -0.14   0.00     0.11  -0.16   0.01    -0.00   0.00   0.00
     3   6     0.05  -0.13   0.01    -0.18  -0.06   0.02     0.00  -0.00  -0.00
     4   6    -0.20  -0.24   0.04    -0.15   0.06   0.00     0.00  -0.00  -0.00
     5   6    -0.28   0.18  -0.01    -0.17   0.21  -0.02     0.00   0.00  -0.00
     6   6    -0.05   0.13  -0.01     0.16   0.07  -0.02    -0.00   0.00   0.00
     7   1     0.11   0.33  -0.05    -0.06   0.09  -0.01    -0.00   0.00   0.00
     8   1     0.11  -0.25   0.02     0.22  -0.07  -0.00    -0.00   0.00   0.00
     9   1    -0.08  -0.29   0.04     0.03  -0.02   0.00     0.00  -0.00  -0.00
    10   1    -0.13   0.29  -0.03    -0.28   0.13  -0.00     0.00   0.00  -0.00
    11   1     0.01  -0.28   0.03     0.19  -0.14   0.01     0.00   0.00   0.00
    12   7     0.03   0.04  -0.01    -0.14  -0.31   0.04     0.00  -0.00  -0.00
    13   6    -0.09  -0.22   0.03     0.29   0.55  -0.08    -0.00  -0.00   0.00
[...]
 .00000012,-0.00000018,-0.00000022,0.00000010,-0.00000005,-0.00000012,-
 0.00000003,-0.00000016,-0.00000014,-0.00000130,0.00000035,-0.00000105,
 0.00000259,-0.00000098,0.00000173,-0.00000162,0.00000080,-0.00000070,0
 .00032002,0.00015237,-0.00026331,0.00304401,-0.00429634,-0.00529176,-0
 .03107588,0.02990699,-0.00740282,-0.00192767,-0.11503366,-0.05184652,0
 .02399218,-0.01465512,0.01518098,-0.17360722,0.58581401,-0.00000180,0.
 00000222,-0.00000033,0.00000022,-0.00000152,0.00000071,0.00000064,0.00
 000054,0.00000322,0.,0.00000154,-0.00000026,-0.00000189,-0.00000040,0.
 00000010,0.00000170,0.00000016,0.00000058,0.00000040,-0.00000105,-0.00
 000056,-0.00000057,-0.00000038,-0.00000098,0.00000045,-0.00000128,-0.0
 0000104,0.00000060,-0.00000041,-0.00000056,0.00000024,-0.00000062,-0.0
 0000082,0.00000011,0.00000056,-0.00000587,0.00000166,-0.00000095,0.000
 00893,-0.00000173,0.00000159,-0.00000313,-0.00081101,0.00022134,-0.000
 17425,-0.00052645,-0.00084244,0.00421356,0.00125558,-0.04562254,-0.038
 37768,-0.14611297,-0.00592470,-0.22116507,-0.02508500,0.01313788,-0.01
 880055,0.18539087,0.22528514,0.53832325,-0.00000060,0.00000087,-0.0000
 0018,0.00000002,-0.00000088,0.00000023,0.00000102,0.00000011,0.0000016
 4,-0.00000038,0.00000078,-0.00000017,-0.00000038,-0.00000034,-0.000000
 01,0.00000089,0.00000001,0.00000021,0.00000009,-0.00000036,-0.00000024
 ,-0.00000027,0.00000009,-0.00000044,0.00000005,-0.00000049,-0.00000045
 ,0.00000009,0.00000003,-0.00000023,-0.00000008,-0.00000017,-0.00000037
 ,-0.00000138,0.00000049,-0.00000300,0.00000359,-0.00000135,0.00000455,
 -0.00000267,0.00000117,-0.00000154,-0.00038551,0.00046296,0.00043813,0
 .00191814,-0.00256752,0.00235759,-0.00060971,-0.00069570,-0.00468606,-
 0.19907736,0.17029182,-0.02781602,0.00309960,0.00082255,-0.00097616,-0
 .01049260,0.01593030,0.00099411,0.20640799,0.00000010,0.,0.00000044,0.
 00000035,0.00000053,0.00000050,-0.00000062,0.00000002,-0.00000010,0.00
 000033,0.00000002,0.00000034,0.00000004,0.00000006,0.00000043,0.000000
 18,0.00000019,0.00000039,-0.00000013,-0.00000016,-0.00000040,0.,-0.000
 00022,-0.00000053,-0.00000014,0.,-0.00000055,-0.00000008,-0.00000007,-
 0.00000041,-0.00000020,-0.00000006,-0.00000032,0.00000088,-0.00000087,
 0.00000076,-0.00000182,0.00000114,-0.00000073,0.00000115,-0.00000059,0
 .00000018,-0.00133627,-0.00018186,-0.00092305,-0.00083937,0.00071642,0
 .00209810,0.01808107,-0.01183181,0.00548862,0.17003529,-0.21558639,0.0
 1027706,0.00065617,-0.00164906,-0.00507927,-0.00282573,0.00467973,-0.0
 0066830,-0.18327860,0.22199281,0.00000024,-0.00000032,-0.00000007,-0.0
 0000013,0.00000015,-0.00000027,0.00000014,-0.00000005,-0.00000050,-0.0
 0000004,-0.00000024,-0.00000009,0.00000024,0.00000006,-0.00000014,-0.0
 0000034,-0.00000007,-0.00000021,-0.00000003,0.00000017,0.00000022,0.00
 000010,0.00000007,0.00000033,-0.00000002,0.00000019,0.00000035,-0.0000
 0005,0.00000006,0.00000022,0.00000002,0.00000010,0.00000024,-0.0000002
 8,0.00000008,0.00000075,0.,-0.00000003,-0.00000125,0.00000010,-0.00000
 018,0.00000040,-0.00064086,0.00026100,-0.00035779,0.00272023,0.0009382
 4,0.00098186,0.01405080,-0.01484443,0.00427317,-0.02866099,0.01082182,
 -0.04764370,-0.00173074,-0.00466499,-0.00134733,-0.01631030,0.01933306
 ,0.00223766,0.03394756,-0.01024942,0.04460853,-0.00000095,0.00000106,0
 .00000006,0.,-0.00000080,0.00000081,-0.00000066,0.00000009,0.00000168,
 0.00000022,0.00000051,0.00000027,-0.00000129,-0.00000006,0.00000028,0.
 00000080,0.00000014,0.00000055,0.00000030,-0.00000052,-0.00000056,-0.0
 0000026,-0.00000015,-0.00000096,0.00000034,-0.00000072,-0.00000102,0.0
 0000046,-0.00000032,-0.00000054,0.00000015,-0.00000036,-0.00000062,0.0
 0000199,0.00000044,-0.00000303,-0.00000219,0.00000064,0.00000504,0.000
 00111,0.00000005,-0.00000199,0.00113872,0.00097929,-0.00115083,0.00225
 235,0.00068204,0.00141862,-0.03693380,0.03538808,-0.00910456,-0.012867
 92,-0.01219500,-0.01889415,-0.19288218,-0.00300395,-0.14747616,0.02381
 978,0.00802239,0.02555586,-0.00011320,-0.00096736,-0.00036077,0.518666
 39,0.00000088,-0.00000090,0.00000005,0.,0.00000042,-0.00000044,0.00000
 045,-0.00000037,-0.00000073,-0.00000034,-0.00000033,-0.00000013,0.0000
 0125,-0.00000011,-0.00000012,-0.00000032,-0.00000001,-0.00000030,-0.00
 000028,0.00000046,0.00000025,0.00000013,0.00000035,0.00000043,-0.00000
 041,0.00000055,0.00000046,-0.00000051,0.00000040,0.00000024,-0.0000003
 4,0.00000032,0.00000030,-0.00000153,-0.00000014,0.00000147,0.00000249,
 -0.00000060,-0.00000235,-0.00000150,-0.00000004,0.00000085,0.00178090,
 0.00013189,0.00078246,0.00332973,-0.00494528,-0.00505551,0.00023268,0.
 03626867,0.03132005,-0.01428626,-0.01929893,-0.02834341,0.04091425,-0.
 11302123,-0.00550518,0.04149525,-0.04081949,0.00119146,-0.00073728,-0.
 00007197,-0.00025009,-0.23650319,0.57900947,-0.00000095,0.00000143,0.0
 0000014,0.00000028,-0.00000064,0.00000082,0.00000102,0.00000038,0.0000
 0215,0.00000006,0.00000115,0.00000003,-0.00000095,-0.00000032,0.000000
 41,0.00000132,0.00000025,0.00000067,0.00000007,-0.00000083,-0.00000069
 ,-0.00000038,-0.00000033,-0.00000106,0.00000011,-0.00000086,-0.0000011
 0,0.00000023,-0.00000022,-0.00000069,-0.00000015,-0.00000040,-0.000000
 80,-0.00000048,-0.00000012,-0.00000345,0.00000125,-0.00000016,0.000005
 60,-0.00000140,0.00000067,-0.00000204,0.00008823,-0.00085030,0.0008801
 0,0.00300598,-0.00662949,0.00207927,-0.04031052,0.06891398,0.01920966,
 -0.02088337,-0.02519714,-0.05067325,-0.10802143,-0.05285771,-0.2215323
 0,0.05550763,-0.03432899,0.03461941,-0.00029691,-0.00071445,-0.0010560
 0,0.19480248,0.15253891,0.48322832,-0.00000034,0.00000044,0.00000005,0
 .00000024,0.00000004,0.00000019,-0.00000031,0.00000028,0.00000044,0.00
 000023,0.00000029,-0.00000001,-0.00000041,0.,0.00000013,0.00000032,0.0
 0000007,0.00000018,0.00000001,-0.00000028,-0.00000017,-0.00000009,-0.0
 0000026,-0.00000022,0.00000004,-0.00000023,-0.00000024,0.00000012,-0.0
 0000016,-0.00000017,0.00000004,-0.00000014,-0.00000020,0.00000075,-0.0
 0000065,-0.00000059,-0.00000126,0.00000071,0.00000094,0.00000069,-0.00
 000012,-0.00000033,-0.00011537,-0.00057886,0.00015402,0.00031393,-0.00
 181837,0.00148638,0.00449709,0.01657826,0.01591835,-0.00100455,0.00486
 397,-0.00290561,-0.04721877,0.01653001,-0.00302125,-0.00128585,0.00029
 150,-0.00052297,0.00007395,0.00097287,0.00086146,0.00501389,-0.0181422
 0,-0.01376733,0.04085930,-0.00000047,0.00000085,-0.00000023,0.00000012
 ,-0.00000061,-0.00000004,0.00000172,0.00000012,0.00000141,-0.00000027,
 0.00000099,-0.00000047,-0.00000018,-0.00000045,-0.00000007,0.00000088,
 0.00000014,0.00000005,-0.00000002,-0.00000043,-0.00000008,-0.00000030,
 -0.00000008,-0.00000012,-0.00000005,-0.00000046,-0.00000011,-0.0000000
 8,0.00000005,-0.00000009,-0.00000014,-0.00000018,-0.00000023,-0.000002
 26,0.00000040,-0.00000241,0.00000415,-0.00000148,0.00000334,-0.0000031
 1,0.00000116,-0.00000093,-0.00034427,-0.00006678,0.00019765,-0.0018717
 9,0.00009541,0.00072195,-0.00113975,-0.01293352,-0.01629281,0.00498618
 ,-0.00024508,-0.00033450,0.01564505,-0.23456943,-0.16858925,0.00035002
 ,0.00000353,0.00088018,0.00005330,-0.00068321,-0.00072115,0.00075205,0
 .00354042,0.00152859,-0.01853288,0.24244429,-0.00000010,0.00000002,-0.
 00000028,-0.00000016,-0.00000041,-0.00000027,0.00000005,-0.00000001,0.
 00000035,-0.00000015,0.00000003,-0.00000023,-0.00000010,-0.00000007,-0
 .00000026,0.00000002,-0.00000004,-0.00000021,0.00000009,0.00000009,0.0
 0000020,-0.00000006,0.00000012,0.00000025,0.00000005,-0.00000007,0.000
 00026,0.00000003,0.00000004,0.00000021,0.00000013,0.00000002,0.0000001
 4,0.00000023,0.00000045,-0.00000096,0.00000017,-0.00000038,0.00000116,
 -0.00000020,0.00000024,-0.00000037,0.00044603,0.00006836,-0.00016016,0
 .00145394,0.00082437,-0.00056618,-0.00152118,0.00352497,0.00531570,-0.
 00263153,-0.00079393,0.00231986,-0.00243911,-0.16887918,-0.18671058,-0
 .00016223,0.00069077,-0.00005317,-0.00002676,0.00026837,0.00030082,0.0
 0292782,-0.01833217,-0.01097581,0.00577079,0.18244493,0.19205584,-0.00
 000009,0.00000013,-0.00000050,-0.00000014,-0.00000034,-0.00000071,0.00
 000109,-0.00000006,0.00000010,-0.00000031,0.00000026,-0.00000062,0.000
 00015,-0.00000020,-0.00000049,-0.00000003,-0.00000013,-0.00000050,0.00
 000004,0.00000005,0.00000051,-0.00000002,0.00000011,0.00000074,0.00000
 005,0.00000005,0.00000077,-0.00000005,0.00000012,0.00000050,0.00000010
 ,0.00000003,0.00000042,-0.00000219,0.00000064,-0.00000056,0.00000371,-
 0.00000157,0.00000025,-0.00000234,0.00000090,0.00000007,0.00040037,-0.
 00031591,0.00022890,-0.00218497,-0.00258334,-0.00347908,-0.01498278,0.
 02906314,0.01546723,-0.03272049,0.00190046,-0.04086958,0.02710349,-0.0
 2647501,-0.00220031,-0.20181945,0.14255429,-0.01771422,0.00114799,0.00
 114607,-0.00522281,-0.10833104,0.00559437,-0.04194440,0.00003133,0.002
 14872,-0.00602807,0.51326507,0.00000120,-0.00000213,-0.00000002,-0.000
 00060,0.00000025,-0.00000050,-0.00000329,-0.00000017,-0.00000201,-0.00
 000025,-0.00000209,0.00000062,0.00000092,0.00000069,-0.00000040,-0.000
 00165,-0.00000046,-0.00000046,0.00000008,0.00000137,0.00000049,0.00000
 046,0.00000077,0.00000064,-0.00000014,0.00000097,0.00000067,-0.0000000
 7,0.00000028,0.00000055,0.00000035,0.00000066,0.00000061,0.00000489,-0
 .00000029,0.00000270,-0.00000669,0.00000181,-0.00000410,0.00000480,-0.
 00000161,0.00000121,-0.00068241,0.00005510,-0.00004069,-0.00167444,0.0
 0442867,0.00155381,0.02843199,-0.06420417,-0.02218934,0.03379607,0.033
 42890,0.06043767,-0.05860704,0.02683117,-0.04381026,0.09907954,-0.2159
 1136,-0.03308599,0.00077747,0.00328137,-0.00304122,0.04941742,-0.22650
 903,-0.09627182,0.00245603,0.00326457,-0.00082041,-0.16925596,0.508289
 21,-0.00000024,0.00000013,-0.00000036,-0.00000013,-0.00000046,-0.00000
 033,-0.00000051,0.00000016,0.00000031,-0.00000006,0.00000002,-0.000000
 26,-0.00000030,0.,-0.00000033,0.,-0.00000013,-0.00000024,0.00000014,0.
 00000008,0.00000025,-0.00000005,0.00000007,0.00000033,0.00000010,-0.00
 000010,0.00000034,0.00000014,-0.00000004,0.00000027,0.00000027,0.,0.00
 000016,0.00000110,0.00000004,-0.00000096,-0.00000104,0.00000017,0.0000
 0104,0.00000059,0.00000006,-0.00000020,-0.00014664,-0.00013893,0.00035
 524,-0.00258478,0.00201411,-0.00338915,0.01530031,-0.02279303,-0.00898
 507,-0.01148509,0.02620421,0.01829145,-0.03166759,-0.01001884,-0.03549
 426,-0.05751832,0.01349909,-0.11272328,-0.00578865,-0.00230955,-0.0010
 8342,-0.00228059,-0.14208165,-0.19652825,-0.00568861,-0.00149289,0.000
 21320,0.25709584,0.16564716,0.55403715,-0.00000050,0.00000070,0.,0.000
 00027,-0.00000011,0.00000022,0.00000024,0.00000020,0.00000071,0.000000
 17,0.00000055,-0.00000011,-0.00000049,-0.00000012,0.00000013,0.0000005
 2,0.00000012,0.00000020,0.00000003,-0.00000041,-0.00000019,-0.00000016
 ,-0.00000029,-0.00000027,0.00000008,-0.00000033,-0.00000029,0.00000011
 ,-0.00000016,-0.00000020,0.00000001,-0.00000022,-0.00000025,-0.0000002
 8,-0.00000022,-0.00000104,0.00000049,-0.00000009,0.00000157,-0.0000004
 7,0.00000039,-0.00000048,0.00001541,0.00005619,0.00005955,-0.00006275,
 -0.00106246,-0.00093325,0.00031669,0.00306981,-0.00529820,0.00466072,-
 0.01752294,-0.01380327,-0.00106622,0.00008749,-0.00040935,-0.04785647,
 0.01463387,-0.00372712,-0.00108983,-0.00139910,0.00205484,-0.00046467,
 0.00523733,-0.00323823,-0.00026816,-0.00038444,0.00042243,0.00435863,0
 .01650332,0.01627137,0.04241672,-0.00000113,0.00000165,0.,0.00000018,-
 0.00000092,0.00000076,0.00000159,0.00000012,0.00000228,-0.00000001,0.0
 0000137,-0.00000010,-0.00000111,-0.00000045,0.00000033,0.00000140,0.00
 000030,0.00000059,0.00000016,-0.00000091,-0.00000062,-0.00000045,-0.00
 000031,-0.00000098,0.00000023,-0.00000097,-0.00000102,0.00000025,-0.00
 000023,-0.00000063,-0.00000011,-0.00000049,-0.00000076,-0.00000153,0.0
 0000084,-0.00000378,0.00000309,-0.00000125,0.00000592,-0.00000255,0.00
 000126,-0.00000196,-0.00001896,0.00004025,0.00005113,-0.00006182,-0.00
 008582,-0.00009685,0.00248778,0.00339741,-0.00140172,0.00122501,0.0031
 5852,0.00171065,0.00013260,0.00014886,0.00082389,0.01479811,-0.2339971
 1,-0.16829544,-0.00186747,-0.00068563,0.00122222,0.00572894,-0.0002414
 0,-0.00044445,-0.00038056,-0.00028790,0.00023072,-0.00232795,-0.011671
 43,-0.01610598,-0.01824036,0.24153579,-0.00000031,0.00000023,-0.000000
 25,-0.00000017,-0.00000042,-0.00000013,0.,0.00000006,0.00000030,-0.000
 00006,0.00000004,-0.00000013,-0.00000041,0.,-0.00000020,0.,-0.00000007
 ,-0.00000012,0.00000017,-0.00000002,0.00000014,-0.00000005,0.00000002,
 0.00000015,0.00000020,-0.00000016,0.00000015,0.00000019,-0.00000008,0.
 00000014,0.00000022,-0.00000006,0.00000008,0.00000027,0.00000058,-0.00
 000091,-0.00000007,-0.00000045,0.00000118,0.00000003,0.00000035,-0.000
 00040,0.00005389,0.00002889,0.00003699,-0.00019488,-0.00100744,-0.0012
 1299,-0.00568328,-0.00076618,0.00107836,0.00308465,-0.01821660,-0.0105
 6788,-0.00029206,0.00071434,-0.00026738,-0.00350918,-0.16851847,-0.189
 14303,0.00164558,0.00170316,-0.00086114,-0.00277428,-0.00099648,0.0031
 1814,0.00041800,0.00023504,-0.00032701,-0.00089379,0.00397468,0.005931
 52,0.00627312,0.18146013,0.19293082,-0.00000042,0.00000076,0.00000003,
 0.00000008,-0.00000052,0.00000037,0.00000148,0.00000018,0.00000130,-0.
 00000034,0.00000073,-0.00000003,-0.00000018,-0.00000029,0.00000016,0.0
 0000080,0.00000006,0.00000033,0.,-0.00000039,-0.00000035,-0.00000022,-
 0.00000001,-0.00000055,-0.00000002,-0.00000042,-0.00000055,0.,0.000000
 04,-0.00000035,-0.00000020,-0.00000015,-0.00000044,-0.00000206,0.00000
 032,-0.00000218,0.00000398,-0.00000146,0.00000345,-0.00000291,0.000001
 15,-0.00000119,-0.00007931,0.00005225,-0.00011388,-0.00066914,0.000648
 52,-0.00007285,0.00167234,0.00110347,-0.00507308,-0.00011615,-0.000715
 80,-0.00010658,-0.00969081,0.01501100,0.00029805,0.00348872,0.00154723
 ,-0.00209618,-0.00033773,-0.00021957,0.00030654,-0.20335231,0.17013418
 ,-0.02825782,-0.00115662,-0.00183267,0.00178066,0.00361058,-0.00144152
 ,-0.00101196,0.00011010,-0.00005505,-0.00007244,0.20768014,-0.00000020
 ,0.00000025,-0.00000006,0.00000025,0.00000042,-0.00000018,-0.00000056,
 0.00000005,-0.00000033,0.00000062,0.00000022,-0.00000029,-0.00000042,0
 .00000003,-0.00000002,-0.00000004,0.00000015,-0.00000014,-0.00000001,-
 0.00000025,0.00000015,0.,-0.00000042,0.00000030,0.00000009,-0.00000007
 ,0.00000030,0.00000009,-0.00000024,0.00000013,0.00000014,-0.00000016,0
 .00000016,0.00000105,-0.00000066,0.00000085,-0.00000288,0.00000149,-0.
 00000156,0.00000191,-0.00000082,0.00000069,-0.00009269,0.00002657,-0.0
 0004923,0.00011782,0.00012627,0.00018993,0.00105964,0.00313425,-0.0028
 0869,-0.00088611,0.00005561,-0.00033251,-0.00308836,0.00471737,-0.0015
 4609,0.00112679,-0.00081815,-0.00563423,-0.00018338,-0.00023313,0.0003
 1751,0.16989813,-0.21757179,0.01225329,-0.00145095,-0.00072377,0.00181
 317,0.01725686,-0.01144823,0.00495007,0.00094568,-0.00075830,0.0001863
 4,-0.18292036,0.22402446,0.00000032,-0.00000057,-0.00000015,-0.0000002
 4,-0.00000007,-0.00000032,-0.00000071,-0.00000013,-0.00000049,-0.00000
 016,-0.00000053,0.00000002,0.00000030,0.00000013,-0.00000025,-0.000000
 46,-0.00000017,-0.00000027,0.00000004,0.00000041,0.00000027,0.00000013
 ,0.00000030,0.00000036,-0.00000002,0.00000029,0.00000037,-0.00000003,0
 .00000012,0.00000029,0.00000011,0.00000020,0.00000029,0.00000085,0.000
 00014,0.00000050,-0.00000088,0.00000016,-0.00000087,0.00000073,-0.0000
 0028,0.00000024,-0.00024490,0.00013582,-0.00034141,-0.00086987,0.00086
 984,0.00038548,-0.00507717,-0.00297434,-0.00068894,-0.00023647,-0.0002
 3938,-0.00105372,-0.01605409,0.01802710,0.00176316,-0.00246063,-0.0051
 3348,-0.00058058,0.00033147,0.00029606,-0.00016666,-0.02840297,0.01238
 283,-0.05101713,0.00217755,0.00142469,-0.00087315,0.01604743,-0.015087
 69,0.00664012,0.00082981,-0.00087316,0.00022719,0.03253723,-0.01060813
 ,0.04653468,-0.00000059,0.00000079,-0.00000008,0.00000004,-0.00000042,
 0.00000024,0.00000087,0.00000016,0.00000083,-0.00000004,0.00000058,-0.
 00000008,-0.00000057,-0.00000015,0.00000007,0.00000050,0.00000004,0.00
 000019,0.00000011,-0.00000040,-0.00000018,-0.00000016,-0.00000017,-0.0
 0000029,0.00000018,-0.00000041,-0.00000031,0.00000019,-0.00000014,-0.0
 0000019,0.00000005,-0.00000023,-0.00000025,-0.00000113,0.00000044,-0.0
 0000148,0.00000201,-0.00000092,0.00000226,-0.00000145,0.00000082,-0.00
 000071,-0.00009500,0.00000583,0.00013711,-0.00005531,-0.00043274,0.000
 12783,-0.00015616,0.00048007,0.00074283,0.00091115,0.00563383,-0.00152
 956,0.00332623,0.00228820,-0.00163236,-0.01058372,-0.00372501,-0.01660
 053,-0.00054173,-0.00002551,-0.00101493,0.00405399,0.00095025,0.003315
 67,0.00025980,0.00017046,0.00000722,-0.18987873,0.00119954,-0.17049532
 ,-0.00107019,-0.00142028,0.00194469,-0.00115981,-0.00178309,0.00142261
 ,0.19498947,-0.00000040,0.00000062,0.,0.00000016,-0.00000008,0.0000001
 5,0.00000076,0.00000018,0.00000053,0.00000009,0.00000053,-0.00000013,-
 0.00000036,-0.00000013,0.00000010,0.00000041,0.00000008,0.00000015,0.,
 -0.00000038,-0.00000014,-0.00000012,-0.00000025,-0.00000018,0.00000008
 ,-0.00000030,-0.00000019,0.00000009,-0.00000012,-0.00000015,-0.0000000
 3,-0.00000018,-0.00000018,-0.00000099,-0.00000005,-0.00000077,0.000001
 27,-0.00000035,0.00000115,-0.00000096,0.00000042,-0.00000033,-0.000204
 18,-0.00005093,-0.00000819,-0.00025289,0.00013127,0.00030295,0.0006014
 0,-0.00148390,-0.00026754,0.00512055,-0.00131238,-0.00224616,0.0026696
 0,-0.00170087,-0.00489911,0.01534493,0.00497461,0.01935765,0.00099156,
 0.00025273,0.00087747,-0.01819884,0.00352868,-0.01794042,-0.00078881,0
 .00016149,-0.00103999,0.00129428,-0.04983480,-0.01737377,-0.00192438,-
 0.00055324,0.00120258,-0.00131167,-0.00053115,0.00177984,-0.00334156,0
 .04641849,0.00000003,-0.00000013,-0.00000017,-0.00000023,-0.00000025,-
 0.00000019,0.00000042,-0.00000008,-0.00000017,-0.00000031,-0.00000017,
 -0.00000003,0.00000013,0.00000002,-0.00000019,-0.00000023,-0.00000017,
 -0.00000017,0.00000008,0.00000017,0.00000018,0.00000006,0.00000021,0.0
 0000022,0.00000008,0.00000011,0.00000024,0.00000003,0.00000009,0.00000
 019,0.00000008,0.00000007,0.00000017,-0.00000108,0.00000072,-0.0000000
 6,0.00000212,-0.00000123,0.,-0.00000121,0.00000064,-0.00000002,0.00012
 215,0.00008646,-0.00005628,-0.00000523,0.00024635,-0.00027721,0.000897
 92,-0.00028597,0.00023405,-0.00216240,-0.00161952,0.00339384,-0.000968
 68,-0.00535888,0.00085157,0.00091323,-0.00120366,0.00162374,-0.0001238
 9,-0.00018733,0.00011402,-0.01426046,0.00234880,-0.01135217,-0.0008807
 9,-0.00000244,-0.00053934,-0.17048715,-0.01726591,-0.22726528,0.001498
 29,0.00171884,-0.00094357,0.00188230,0.00126858,-0.00082902,0.18357474
 ,0.02025468,0.23504566\\-0.00009541,0.00005396,-0.00000308,0.00008486,
 0.00009605,-0.00001510,0.00018036,-0.00017262,0.00001402,-0.00018006,0
 .00006117,0.00000280,0.00008539,0.00008954,-0.00001958,-0.00000959,-0.
 00011237,0.00001704,0.00001668,-0.00000235,0.00000259,-0.00000922,-0.0
 0001429,0.00000410,0.00003016,-0.00000782,-0.00000351,0.00000861,-0.00
 000641,-0.00000165,0.00000758,0.00000009,-0.00000030,-0.00003698,-0.00
 002633,-0.00000496,0.00009713,-0.00003656,0.00001128,-0.00017963,0.000
 07783,-0.00000368,-0.10172481,0.06143498,-0.01771812,0.05084345,-0.040
 66480,-0.00908395,0.04063704,-0.02304605,0.01285205,-0.01644340,0.0121
 7955,-0.00642866,0.00262562,-0.00649904,-0.00305402,-0.00070935,0.0176
 0079,0.01547697,0.00875263,-0.00785007,0.00197146,0.01763674,-0.020880
 27,0.00156556,0.00141734,0.00774579,0.00795654,0.01057050,0.00063555,0
 .01185585,0.00086011,-0.00882767,-0.00713632,-0.00701330,0.00857012,0.
 00026833,-0.00745245,-0.00039877,-0.00852569\\\@
 The archive entry for this job was punched.


 THE MOST INCOMPREHENSIBLE THING ABOUT THE WORLD
 IS THAT IT IS COMPREHENSIBLE. -- A. EINSTEIN
 Job cpu time:       0 days  0 hours 24 minutes 27.2 seconds.
 Elapsed time:       0 days  0 hours  1 minutes  1.8 seconds.
 File lengths (MBytes):  RWF=    223 Int=      0 D2E=      0 Chk=     32 Scr=      1
 Normal termination of Gaussian 16 at Fri May 31 12:00:08 2024.
