 Entering Gaussian System, Link 0=g16
 Initial command:
 /software/gaussian/g16-c01/avx2/g16/l1.exe "/local_scratch/24931456/Gau-23699.inp" -scrdir="/local_scratch/24931456/"
 Entering Link 1 = /software/gaussian/g16-c01/avx2/g16/l1.exe PID=     23709.
  
 Copyright (c) 1988-2019, Gaussian, Inc.  All Rights Reserved.
  
 This is part of the Gaussian(R) 16 program.  It is based on
 the Gaussian(R) 09 system (copyright 2009, Gaussian, Inc.),
 the Gaussian(R) 03 system (copyright 2003, Gaussian, Inc.),
 the Gaussian(R) 98 system (copyright 1998, Gaussian, Inc.),
 the Gaussian(R) 94 system (copyright 1995, Gaussian, Inc.),
 the Gaussian 92(TM) system (copyright 1992, Gaussian, Inc.),
 the Gaussian 90(TM) system (copyright 1990, Gaussian, Inc.),
 the Gaussian 88(TM) system (copyright 1988, Gaussian, Inc.),
 the Gaussian 86(TM) system (copyright 1986, Carnegie Mellon
 University), and the Gaussian 82(TM) system (copyright 1983,
 Carnegie Mellon University). Gaussian is a federally registered
 trademark of Gaussian, Inc.
  
 This software contains proprietary and confidential information,
 including trade secrets, belonging to Gaussian, Inc.
  
 This software is provided under written license and may be
 used, copied, transmitted, or stored only in accord with that
 written license.
  
 The following legend is applicable only to US Government
 contracts under FAR:
  
                    RESTRICTED RIGHTS LEGEND
  
 Use, reproduction and disclosure by the US Government is
 subject to restrictions as set forth in subparagraphs (a)
 and (c) of the Commercial Computer Software - Restricted
 Rights clause in FAR 52.227-19.
  
 Gaussian, Inc.
 340 Quinnipiac St., Bldg. 40, Wallingford CT 06492
  
  
 ---------------------------------------------------------------
 Warning -- This program may not be used in any manner that
 competes with the business of Gaussian, Inc. or will provide
 assistance to any competitor of Gaussian, Inc.  The licensee
 of this program is prohibited from giving any competitor of
 Gaussian, Inc. access to this program.  By using this program,
 the user acknowledges that Gaussian, Inc. is engaged in the
 business of creating and licensing software in the field of
 computational chemistry and represents and warrants to the
 licensee that it is not a competitor of Gaussian, Inc. and that
 it will not use this program in any manner prohibited above.
 ---------------------------------------------------------------
  

 Cite this work as:
 Gaussian 16, Revision C.01,
 M. J. Frisch, G. W. Trucks, H. B. Schlegel, G. E. Scuseria, 
 M. A. Robb, J. R. Cheeseman, G. Scalmani, V. Barone, 
 G. A. Petersson, H. Nakatsuji, X. Li, M. Caricato, A. V. Marenich, 
 J. Bloino, B. G. Janesko, R. Gomperts, B. Mennucci, H. P. Hratchian, 
 J. V. Ortiz, A. F. Izmaylov, J. L. Sonnenberg, D. Williams-Young, 
 F. Ding, F. Lipparini, F. Egidi, J. Goings, B. Peng, A. Petrone, 
 T. Henderson, D. Ranasinghe, V. G. Zakrzewski, J. Gao, N. Rega, 
 G. Zheng, W. Liang, M. Hada, M. Ehara, K. Toyota, R. Fukuda, 
 J. Hasegawa, M. Ishida, T. Nakajima, Y. Honda, O. Kitao, H. Nakai, 
 T. Vreven, K. Throssell, J. A. Montgomery, Jr., J. E. Peralta, 
 F. Ogliaro, M. J. Bearpark, J. J. Heyd, E. N. Brothers, K. N. Kudin, 
 V. N. Staroverov, T. A. Keith, R. Kobayashi, J. Normand, 
 K. Raghavachari, A. P. Rendell, J. C. Burant, S. S. Iyengar, 
 J. Tomasi, M. Cossi, J. M. Millam, M. Klene, C. Adamo, R. Cammi, 
 J. W. Ochterski, R. L. Martin, K. Morokuma, O. Farkas, 
 J. B. Foresman, and D. J. Fox, Gaussian, Inc., Wallingford CT, 2019.
 
 ******************************************
 Gaussian 16:  ES64L-G16RevC.01  3-Jul-2019
                28-May-2024 
 ******************************************
 %chk=geometry.chk
 %mem=4GB
 %nprocshared=4
 Will use up to    4 processors via shared memory.
 ---------------------------
 #P OPT wB97XD/6-31G* NoSymm
 ---------------------------
 1/18=20,19=15,26=3,38=1/1,3;
 2/9=110,12=2,15=1,17=6,18=5,40=1/2;
 3/5=1,6=6,7=1,11=2,25=1,30=1,71=1,74=-58/1,2,3;
 4//1;
 5/5=2,38=5/2;
 6/7=2,8=2,9=2,10=2,28=1/1;
 7/30=1/1,2,3,16;
 1/18=20,19=15,26=3/3(2);
 2/9=110,15=1/2;
 99//99;
 2/9=110,15=1/2;
 3/5=1,6=6,7=1,11=2,25=1,30=1,71=1,74=-58/1,2,3;
 4/5=5,16=3,69=1/1;
 5/5=2,38=5/2;
 7/30=1/1,2,3,16;
 1/18=20,19=15,26=3/3(-5);
 2/9=110,15=1/2;
 6/7=2,8=2,9=2,10=2,19=2,28=1/1;
 99/9=1/99;
 Leave Link    1 at Tue May 28 16:28:50 2024, MaxMem=   536870912 cpu:               0.4 elap:               0.1
 (Enter /software/gaussian/g16-c01/avx2/g16/l101.exe)
 --------------------------
 PHI Geometry (Unoptimized)
 --------------------------
 Symbolic Z-matrix:
 Charge =  0 Multiplicity = 1
 C                    -0.40827  -1.31091  -0.07933 
 C                     0.93659  -0.91685  -0.08181 
 C                     1.26775   0.44486  -0.07909 
 C                     0.25406   1.4125   -0.07389 
 C                    -1.09079   1.01844  -0.07141 
 C                    -1.42196  -0.34327  -0.07413 
 H                    -0.66112  -2.3506   -0.08141 
 H                     1.71056  -1.65566  -0.08577 
 H                     0.50691   2.4522   -0.07181 
 H                    -1.86477   1.75725  -0.06744 
 H                    -2.44878  -0.64415  -0.07224 
 N                     2.67843   0.85822  -0.08168 
 C                     3.61415  -0.03499  -0.08648 
 H                     2.91474   1.82989  -0.07974 
 O                     3.27622  -1.42449  -0.08925 
 O                     4.98645   0.36712  -0.08901 
 C                     5.77395  -0.6211    0.58045 
 C                     5.99194  -0.52575   1.96151 
 C                     6.32771  -1.68489  -0.14454 
 C                     6.7637   -1.4942    2.61757 
 H                     5.56914   0.28649   2.51505 
 C                     7.09947  -2.65334   0.51153 
 H                     6.16127  -1.75769  -1.199 
 C                     7.31746  -2.558     1.89259 
 H                     6.93014  -1.4214    3.67204 
 H                     7.52228  -3.46557  -0.04201 
 H                     7.90671  -3.29743   2.39351 
 
 ITRead=  0  0  0  0  0  0  0  0  0  0  0  0  0  0  0  0  0  0  0  0
 ITRead=  0  0  0  0  0  0  0
 MicOpt= -1 -1 -1 -1 -1 -1 -1 -1 -1 -1 -1 -1 -1 -1 -1 -1 -1 -1 -1 -1
 MicOpt= -1 -1 -1 -1 -1 -1 -1
 NAtoms=     27 NQM=       27 NQMF=       0 NMMI=      0 NMMIF=      0
                NMic=       0 NMicF=      0.
                    Isotopes and Nuclear Properties:
 (Nuclear quadrupole moments (NQMom) in fm**2, nuclear magnetic moments (NMagM)
  in nuclear magnetons)

  Atom         1           2           3           4           5           6           7           8           9          10
 IAtWgt=          12          12          12          12          12          12           1           1           1           1
 AtmWgt=  12.0000000  12.0000000  12.0000000  12.0000000  12.0000000  12.0000000   1.0078250   1.0078250   1.0078250   1.0078250
 NucSpn=           0           0           0           0           0           0           1           1           1           1
 AtZEff=  -0.0000000  -0.0000000  -0.0000000  -0.0000000  -0.0000000  -0.0000000  -0.0000000  -0.0000000  -0.0000000  -0.0000000
 NQMom=    0.0000000   0.0000000   0.0000000   0.0000000   0.0000000   0.0000000   0.0000000   0.0000000   0.0000000   0.0000000
 NMagM=    0.0000000   0.0000000   0.0000000   0.0000000   0.0000000   0.0000000   2.7928460   2.7928460   2.7928460   2.7928460
 AtZNuc=   6.0000000   6.0000000   6.0000000   6.0000000   6.0000000   6.0000000   1.0000000   1.0000000   1.0000000   1.0000000

  Atom        11          12          13          14          15          16          17          18          19          20
 IAtWgt=           1          14          12           1          16          16          12          12          12          12
 AtmWgt=   1.0078250  14.0030740  12.0000000   1.0078250  15.9949146  15.9949146  12.0000000  12.0000000  12.0000000  12.0000000
 NucSpn=           1           2           0           1           0           0           0           0           0           0
 AtZEff=  -0.0000000  -0.0000000  -0.0000000  -0.0000000  -0.0000000  -0.0000000  -0.0000000  -0.0000000  -0.0000000  -0.0000000
 NQMom=    0.0000000   2.0440000   0.0000000   0.0000000   0.0000000   0.0000000   0.0000000   0.0000000   0.0000000   0.0000000
 NMagM=    2.7928460   0.4037610   0.0000000   2.7928460   0.0000000   0.0000000   0.0000000   0.0000000   0.0000000   0.0000000
 AtZNuc=   1.0000000   7.0000000   6.0000000   1.0000000   8.0000000   8.0000000   6.0000000   6.0000000   6.0000000   6.0000000

  Atom        21          22          23          24          25          26          27
 IAtWgt=           1          12           1          12           1           1           1
 AtmWgt=   1.0078250  12.0000000   1.0078250  12.0000000   1.0078250   1.0078250   1.0078250
 NucSpn=           1           0           1           0           1           1           1
 AtZEff=  -0.0000000  -0.0000000  -0.0000000  -0.0000000  -0.0000000  -0.0000000  -0.0000000
 NQMom=    0.0000000   0.0000000   0.0000000   0.0000000   0.0000000   0.0000000   0.0000000
 NMagM=    2.7928460   0.0000000   2.7928460   0.0000000   2.7928460   2.7928460   2.7928460
 AtZNuc=   1.0000000   6.0000000   1.0000000   6.0000000   1.0000000   1.0000000   1.0000000
 Leave Link  101 at Tue May 28 16:28:51 2024, MaxMem=   536870912 cpu:               0.9 elap:               0.3
 (Enter /software/gaussian/g16-c01/avx2/g16/l103.exe)

 GradGradGradGradGradGradGradGradGradGradGradGradGradGradGradGradGradGrad
 Berny optimization.
 Initialization pass.
                           ----------------------------
                           !    Initial Parameters    !
                           ! (Angstroms and Degrees)  !
 --------------------------                            --------------------------
 ! Name  Definition              Value          Derivative Info.                !
 --------------------------------------------------------------------------------
 ! R1    R(1,2)                  1.4014         estimate D2E/DX2                !
 ! R2    R(1,6)                  1.4014         estimate D2E/DX2                !
 ! R3    R(1,7)                  1.07           estimate D2E/DX2                !
 ! R4    R(2,3)                  1.4014         estimate D2E/DX2                !
 ! R5    R(2,8)                  1.07           estimate D2E/DX2                !
 ! R6    R(3,4)                  1.4014         estimate D2E/DX2                !
 ! R7    R(3,12)                 1.47           estimate D2E/DX2                !
 ! R8    R(4,5)                  1.4014         estimate D2E/DX2                !
 ! R9    R(4,9)                  1.07           estimate D2E/DX2                !
 ! R10   R(5,6)                  1.4014         estimate D2E/DX2                !
 ! R11   R(5,10)                 1.07           estimate D2E/DX2                !
 ! R12   R(6,11)                 1.07           estimate D2E/DX2                !
 ! R13   R(12,13)                1.2936         estimate D2E/DX2                !
 ! R14   R(12,14)                1.0            estimate D2E/DX2                !
 ! R15   R(13,15)                1.43           estimate D2E/DX2                !
 ! R16   R(13,16)                1.43           estimate D2E/DX2                !
 ! R17   R(16,17)                1.43           estimate D2E/DX2                !
 ! R18   R(17,18)                1.4014         estimate D2E/DX2                !
 ! R19   R(17,19)                1.4014         estimate D2E/DX2                !
 ! R20   R(18,20)                1.4014         estimate D2E/DX2                !
 ! R21   R(18,21)                1.07           estimate D2E/DX2                !
 ! R22   R(19,22)                1.4014         estimate D2E/DX2                !
 ! R23   R(19,23)                1.07           estimate D2E/DX2                !
 ! R24   R(20,24)                1.4014         estimate D2E/DX2                !
 ! R25   R(20,25)                1.07           estimate D2E/DX2                !
 ! R26   R(22,24)                1.4014         estimate D2E/DX2                !
 ! R27   R(22,26)                1.07           estimate D2E/DX2                !
 ! R28   R(24,27)                1.07           estimate D2E/DX2                !
 ! A1    A(2,1,6)              120.0            estimate D2E/DX2                !
 ! A2    A(2,1,7)              120.0            estimate D2E/DX2                !
 ! A3    A(6,1,7)              120.0            estimate D2E/DX2                !
 ! A4    A(1,2,3)              120.0            estimate D2E/DX2                !
 ! A5    A(1,2,8)              120.0            estimate D2E/DX2                !
 ! A6    A(3,2,8)              120.0            estimate D2E/DX2                !
 ! A7    A(2,3,4)              120.0            estimate D2E/DX2                !
 ! A8    A(2,3,12)             120.0            estimate D2E/DX2                !
 ! A9    A(4,3,12)             120.0            estimate D2E/DX2                !
 ! A10   A(3,4,5)              120.0            estimate D2E/DX2                !
 ! A11   A(3,4,9)              120.0            estimate D2E/DX2                !
 ! A12   A(5,4,9)              120.0            estimate D2E/DX2                !
 ! A13   A(4,5,6)              120.0            estimate D2E/DX2                !
 ! A14   A(4,5,10)             120.0            estimate D2E/DX2                !
 ! A15   A(6,5,10)             120.0            estimate D2E/DX2                !
 ! A16   A(1,6,5)              120.0            estimate D2E/DX2                !
 ! A17   A(1,6,11)             120.0            estimate D2E/DX2                !
 ! A18   A(5,6,11)             120.0            estimate D2E/DX2                !
 ! A19   A(3,12,13)            120.0            estimate D2E/DX2                !
 ! A20   A(3,12,14)            120.0            estimate D2E/DX2                !
 ! A21   A(13,12,14)           120.0            estimate D2E/DX2                !
 ! A22   A(12,13,15)           120.0            estimate D2E/DX2                !
 ! A23   A(12,13,16)           120.0            estimate D2E/DX2                !
 ! A24   A(15,13,16)           120.0            estimate D2E/DX2                !
 ! A25   A(13,16,17)           109.4712         estimate D2E/DX2                !
 ! A26   A(16,17,18)           120.0            estimate D2E/DX2                !
 ! A27   A(16,17,19)           120.0            estimate D2E/DX2                !
 ! A28   A(18,17,19)           120.0            estimate D2E/DX2                !
 ! A29   A(17,18,20)           120.0            estimate D2E/DX2                !
 ! A30   A(17,18,21)           120.0            estimate D2E/DX2                !
 ! A31   A(20,18,21)           120.0            estimate D2E/DX2                !
 ! A32   A(17,19,22)           120.0            estimate D2E/DX2                !
 ! A33   A(17,19,23)           120.0            estimate D2E/DX2                !
 ! A34   A(22,19,23)           120.0            estimate D2E/DX2                !
 ! A35   A(18,20,24)           120.0            estimate D2E/DX2                !
 ! A36   A(18,20,25)           120.0            estimate D2E/DX2                !
 ! A37   A(24,20,25)           120.0            estimate D2E/DX2                !
 ! A38   A(19,22,24)           120.0            estimate D2E/DX2                !
 ! A39   A(19,22,26)           120.0            estimate D2E/DX2                !
 ! A40   A(24,22,26)           120.0            estimate D2E/DX2                !
 ! A41   A(20,24,22)           120.0            estimate D2E/DX2                !
 ! A42   A(20,24,27)           120.0            estimate D2E/DX2                !
 ! A43   A(22,24,27)           120.0            estimate D2E/DX2                !
 ! D1    D(6,1,2,3)             -0.0002         estimate D2E/DX2                !
 ! D2    D(6,1,2,8)            180.0            estimate D2E/DX2                !
 ! D3    D(7,1,2,3)            179.9998         estimate D2E/DX2                !
 ! D4    D(7,1,2,8)             -0.0001         estimate D2E/DX2                !
 ! D5    D(2,1,6,5)              0.0001         estimate D2E/DX2                !
 ! D6    D(2,1,6,11)           180.0            estimate D2E/DX2                !
 ! D7    D(7,1,6,5)           -179.9999         estimate D2E/DX2                !
 ! D8    D(7,1,6,11)             0.0            estimate D2E/DX2                !
 ! D9    D(1,2,3,4)              0.0001         estimate D2E/DX2                !
 ! D10   D(1,2,3,12)          -180.0            estimate D2E/DX2                !
 ! D11   D(8,2,3,4)            180.0            estimate D2E/DX2                !
 ! D12   D(8,2,3,12)            -0.0001         estimate D2E/DX2                !
 ! D13   D(2,3,4,5)              0.0            estimate D2E/DX2                !
 ! D14   D(2,3,4,9)           -180.0            estimate D2E/DX2                !
 ! D15   D(12,3,4,5)          -179.9999         estimate D2E/DX2                !
 ! D16   D(12,3,4,9)             0.0002         estimate D2E/DX2                !
 ! D17   D(2,3,12,13)           -0.0001         estimate D2E/DX2                !
 ! D18   D(2,3,12,14)         -179.9999         estimate D2E/DX2                !
 ! D19   D(4,3,12,13)          179.9998         estimate D2E/DX2                !
 ! D20   D(4,3,12,14)           -0.0001         estimate D2E/DX2                !
 ! D21   D(3,4,5,6)             -0.0001         estimate D2E/DX2                !
 ! D22   D(3,4,5,10)           179.9999         estimate D2E/DX2                !
 ! D23   D(9,4,5,6)            179.9999         estimate D2E/DX2                !
 ! D24   D(9,4,5,10)            -0.0001         estimate D2E/DX2                !
 ! D25   D(4,5,6,1)              0.0            estimate D2E/DX2                !
 ! D26   D(4,5,6,11)          -179.9999         estimate D2E/DX2                !
 ! D27   D(10,5,6,1)          -180.0            estimate D2E/DX2                !
 ! D28   D(10,5,6,11)            0.0001         estimate D2E/DX2                !
 ! D29   D(3,12,13,15)          -0.0001         estimate D2E/DX2                !
 ! D30   D(3,12,13,16)         179.9999         estimate D2E/DX2                !
 ! D31   D(14,12,13,15)        179.9998         estimate D2E/DX2                !
 ! D32   D(14,12,13,16)         -0.0002         estimate D2E/DX2                !
 ! D33   D(12,13,16,17)        150.0            estimate D2E/DX2                !
 ! D34   D(15,13,16,17)        -30.0            estimate D2E/DX2                !
 ! D35   D(13,16,17,18)        -90.0            estimate D2E/DX2                !
 ! D36   D(13,16,17,19)         90.0            estimate D2E/DX2                !
 ! D37   D(16,17,18,20)        179.9998         estimate D2E/DX2                !
 ! D38   D(16,17,18,21)         -0.0001         estimate D2E/DX2                !
 ! D39   D(19,17,18,20)         -0.0002         estimate D2E/DX2                !
 ! D40   D(19,17,18,21)        179.9999         estimate D2E/DX2                !
 ! D41   D(16,17,19,22)       -179.9999         estimate D2E/DX2                !
 ! D42   D(16,17,19,23)          0.0002         estimate D2E/DX2                !
 ! D43   D(18,17,19,22)          0.0001         estimate D2E/DX2                !
 ! D44   D(18,17,19,23)       -179.9998         estimate D2E/DX2                !
 ! D45   D(17,18,20,24)          0.0001         estimate D2E/DX2                !
 ! D46   D(17,18,20,25)        180.0            estimate D2E/DX2                !
 ! D47   D(21,18,20,24)       -179.9999         estimate D2E/DX2                !
 ! D48   D(21,18,20,25)         -0.0001         estimate D2E/DX2                !
 ! D49   D(17,19,22,24)          0.0001         estimate D2E/DX2                !
 ! D50   D(17,19,22,26)       -179.9999         estimate D2E/DX2                !
 ! D51   D(23,19,22,24)        180.0            estimate D2E/DX2                !
 ! D52   D(23,19,22,26)         -0.0001         estimate D2E/DX2                !
 ! D53   D(18,20,24,22)          0.0001         estimate D2E/DX2                !
 ! D54   D(18,20,24,27)       -180.0            estimate D2E/DX2                !
 ! D55   D(25,20,24,22)       -179.9998         estimate D2E/DX2                !
 ! D56   D(25,20,24,27)          0.0002         estimate D2E/DX2                !
 ! D57   D(19,22,24,20)         -0.0002         estimate D2E/DX2                !
 ! D58   D(19,22,24,27)        179.9998         estimate D2E/DX2                !
 ! D59   D(26,22,24,20)        179.9999         estimate D2E/DX2                !
 ! D60   D(26,22,24,27)         -0.0001         estimate D2E/DX2                !
 --------------------------------------------------------------------------------
 Trust Radius=3.00D-01 FncErr=1.00D-07 GrdErr=1.00D-06 EigMax=2.50D+02 EigMin=1.00D-04
 Number of steps in this run=    141 maximum allowed number of steps=    162.
 GradGradGradGradGradGradGradGradGradGradGradGradGradGradGradGradGradGrad

 Leave Link  103 at Tue May 28 16:28:51 2024, MaxMem=   536870912 cpu:               0.1 elap:               0.1
 (Enter /software/gaussian/g16-c01/avx2/g16/l202.exe)
                          Input orientation:                          
 ---------------------------------------------------------------------
 Center     Atomic      Atomic             Coordinates (Angstroms)
 Number     Number       Type             X           Y           Z
 ---------------------------------------------------------------------
      1          6           0       -0.408267   -1.310910   -0.079330
      2          6           0        0.936586   -0.916845   -0.081806
      3          6           0        1.267750    0.444861   -0.079086
      4          6           0        0.254061    1.412503   -0.073889
      5          6           0       -1.090791    1.018438   -0.071411
      6          6           0       -1.421955   -0.343269   -0.074132
      7          1           0       -0.661118   -2.350603   -0.081410
      8          1           0        1.710560   -1.655661   -0.085774
      9          1           0        0.506912    2.452196   -0.071814
     10          1           0       -1.864765    1.757254   -0.067442
     11          1           0       -2.448780   -0.644146   -0.072242
     12          7           0        2.678435    0.858216   -0.081683
     13          6           0        3.614147   -0.034992   -0.086477
     14          1           0        2.914744    1.829892   -0.079742
     15          8           0        3.276225   -1.424488   -0.089249
     16          8           0        4.986446    0.367115   -0.089005
     17          6           0        5.773951   -0.621097    0.580451
     18          6           0        5.991944   -0.525748    1.961505
     19          6           0        6.327714   -1.684893   -0.144535
     20          6           0        6.763696   -1.494198    2.617573
     21          1           0        5.569136    0.286486    2.515048
     22          6           0        7.099468   -2.653342    0.511532
     23          1           0        6.161274   -1.757692   -1.199001
     24          6           0        7.317458   -2.557995    1.892587
     25          1           0        6.930139   -1.421397    3.672038
     26          1           0        7.522279   -3.465574   -0.042011
     27          1           0        7.906707   -3.297429    2.393509
 ---------------------------------------------------------------------
                    Distance matrix (angstroms):
                    1          2          3          4          5
     1  C    0.000000
     2  C    1.401400   0.000000
     3  C    2.427296   1.401400   0.000000
     4  C    2.802800   2.427296   1.401400   0.000000
     5  C    2.427296   2.802800   2.427296   1.401400   0.000000
     6  C    1.401400   2.427296   2.802800   2.427296   1.401400
     7  H    1.070000   2.146700   3.396345   3.872800   3.396345
     8  H    2.146700   1.070000   2.146700   3.396345   3.872800
     9  H    3.872800   3.396345   2.146700   1.070000   2.146700
    10  H    3.396345   3.872800   3.396345   2.146700   1.070000
    11  H    2.146700   3.396345   3.872800   3.396345   2.146700
    12  N    3.772644   2.486942   1.470000   2.486942   3.772644
    13  C    4.219933   2.819046   2.394972   3.658630   4.821451
    14  H    4.572422   3.384919   2.151953   2.693229   4.086911
    15  O    3.686255   2.394090   2.743819   4.145145   5.003902
    16  O    5.649671   4.248526   3.719522   4.846496   6.112065
    17  C    6.255476   4.891437   4.677297   5.918857   7.087855
    18  C    6.763445   5.466692   5.236803   6.389283   7.528771
    19  C    6.746670   5.445925   5.490298   6.818219   7.896048
    20  C    7.664459   6.447883   6.421631   7.620251   8.673924
    21  H    6.709084   5.445381   5.025588   6.018349   7.181932
    22  C    7.649662   6.430287   6.629980   7.983321   8.994562
    23  H    6.679233   5.408560   5.481974   6.797881   7.846707
    24  C    8.070347   6.878017   7.035880   8.338072   9.345952
    25  H    8.242401   7.090035   7.043898   8.162902   9.181587
    26  H    8.218122   7.061796   7.376450   8.753493   9.710418
    27  H    8.899437   7.770261   8.012129   9.318503  10.278984
                    6          7          8          9         10
     6  C    0.000000
     7  H    2.146700   0.000000
     8  H    3.396345   2.471400   0.000000
     9  H    3.396345   4.942800   4.280590   0.000000
    10  H    2.146700   4.280590   4.942800   2.471400   0.000000
    11  H    1.070000   2.471400   4.280590   4.280590   2.471400
    12  N    4.272800   4.631321   2.693767   2.693767   4.631321
    13  C    5.045544   4.862096   2.500043   3.980104   5.764632
    14  H    4.850734   5.501212   3.687706   2.486962   4.780077
    15  O    4.821012   4.044801   1.582643   4.764250   6.045968
    16  O    6.447672   6.267458   3.850073   4.941060   6.990854
    17  C    7.230957   6.696221   4.245625   6.132885   8.026600
    18  C    7.690450   7.194917   4.878351   6.564153   8.429508
    19  C    7.865258   7.020750   4.617621   7.141605   8.886565
    20  C    8.693377   7.946433   5.733092   7.871097   9.603728
    21  H    7.481698   7.246509   5.042303   6.083441   8.005954
    22  C    8.848395   7.789090   5.512937   8.358744  10.007300
    23  H    7.795595   6.938702   4.588959   7.139014   8.834737
    24  C    9.227694   8.221760   6.013770   8.680116  10.333262
    25  H    9.217029   8.519330   6.435841   8.383256  10.071637
    26  H    9.473603   8.259098   6.087182   9.178031  10.742215
    27  H   10.091593   8.968240   6.872735   9.689838  11.273321
                   11         12         13         14         15
    11  H    0.000000
    12  N    5.342800   0.000000
    13  C    6.093469   1.293600   0.000000
    14  H    5.906633   1.000000   1.991733   0.000000
    15  O    5.777967   2.359693   1.430000   3.274408   0.000000
    16  O    7.503700   2.359693   1.430000   2.536089   2.476833
    17  C    8.248627   3.494140   2.335180   3.823384   2.707873
    18  C    8.683085   4.131503   3.176317   4.380056   3.519724
    19  C    8.838282   4.448437   3.176317   4.899620   3.063079
    20  C    9.634698   5.432237   4.400094   5.756693   4.415224
    21  H    8.476268   3.927600   3.270055   4.020054   3.868751
    22  C    9.774800   5.677014   4.400095   6.161242   4.060568
    23  H    8.754577   4.496838   3.270056   4.966232   3.109033
    24  C   10.144100   6.090056   4.898648   6.521313   4.641560
    25  H   10.128567   6.112614   5.200419   6.385149   5.243890
    26  H   10.362596   6.493040   5.200420   7.019456   4.711395
    27  H   10.970686   7.122555   5.934636   7.571399   5.577935
                   16         17         18         19         20
    16  O    0.000000
    17  C    1.430000   0.000000
    18  C    2.452106   1.401400   0.000000
    19  C    2.452106   1.401400   2.427296   0.000000
    20  C    3.734792   2.427296   1.401400   2.802800   0.000000
    21  H    2.669667   2.146700   1.070000   3.396345   2.146700
    22  C    3.734792   2.427296   2.802800   1.401400   2.427296
    23  H    2.669667   2.146700   3.396345   1.070000   3.872800
    24  C    4.232800   2.802800   2.427296   2.427296   1.401400
    25  H    4.595886   3.396345   2.146700   3.872800   1.070000
    26  H    4.595886   3.396345   3.872800   2.146700   3.396345
    27  H    5.302800   3.872800   3.396345   3.396345   2.146700
                   21         22         23         24         25
    21  H    0.000000
    22  C    3.872800   0.000000
    23  H    4.280590   2.146700   0.000000
    24  C    3.396345   1.401400   3.396345   0.000000
    25  H    2.471400   3.396345   4.942800   2.146700   0.000000
    26  H    4.942800   1.070000   2.471400   2.146700   4.280590
    27  H    4.280590   2.146700   4.280590   1.070000   2.471400
                   26         27
    26  H    0.000000
    27  H    2.471400   0.000000
 Symmetry turned off by external request.
 Stoichiometry    C13H11NO2
 Framework group  C1[X(C13H11NO2)]
 Deg. of freedom    75
 Full point group                 C1      NOp   1
 Rotational constants (GHZ):           1.6201977           0.2329479           0.2228533
 Leave Link  202 at Tue May 28 16:28:51 2024, MaxMem=   536870912 cpu:               0.1 elap:               0.1
 (Enter /software/gaussian/g16-c01/avx2/g16/l301.exe)
 Standard basis: 6-31G(d) (6D, 7F)
 Ernie: Thresh=  0.10000D-02 Tol=  0.10000D-05 Strict=F.
   262 basis functions,   492 primitive gaussians,   262 cartesian basis functions
    56 alpha electrons       56 beta electrons
       nuclear repulsion energy       978.7854061440 Hartrees.
 IExCor= 4639 DFT=T Ex+Corr=wB97XD ExCW=0 ScaHFX=  1.000000
 ScaDFX=  1.000000  1.000000  1.000000  1.000000 ScalE2=  1.000000  1.000000
 IRadAn=      5 IRanWt=     -1 IRanGd=            0 ICorTp=0 IEmpDi=121
 HFx  wShort=  0.000000 wLong=  0.200000 cFull=  0.222036 cShort=  0.000000 cLong=  0.777964
 DFx  wShort=  0.000000 wLong=  0.200000 cFull=  0.000000 cShort=  0.000000 cLong=  1.000000
 NAtoms=   27 NActive=   27 NUniq=   27 SFac= 1.00D+00 NAtFMM=   60 NAOKFM=F Big=F
 Integral buffers will be    131072 words long.
 Raffenetti 2 integral format.
 Two-electron integral symmetry is turned off.
 R6Disp:  Grimme-D2 Dispersion energy=       -0.0142671803 Hartrees.
 Nuclear repulsion after empirical dispersion term =      978.7711389637 Hartrees.
 Leave Link  301 at Tue May 28 16:28:52 2024, MaxMem=   536870912 cpu:               0.3 elap:               0.1
 (Enter /software/gaussian/g16-c01/avx2/g16/l302.exe)
 NPDir=0 NMtPBC=     1 NCelOv=     1 NCel=       1 NClECP=     1 NCelD=      1
         NCelK=      1 NCelE2=     1 NClLst=     1 CellRange=     0.0.
 One-electron integrals computed using PRISM.
 NBasis=   262 RedAO= T EigKep=  4.54D-04  NBF=   262
 NBsUse=   262 1.00D-06 EigRej= -1.00D+00 NBFU=   262
 Precomputing XC quadrature grid using
 IXCGrd= 4 IRadAn=           5 IRanWt=          -1 IRanGd=           0 AccXCQ= 0.00D+00.
 Generated NRdTot=       0 NPtTot=           0 NUsed=           0 NTot=          32
 NSgBfM=   261   261   261   261   261 MxSgAt=    27 MxSgA2=    27.
 Leave Link  302 at Tue May 28 16:28:53 2024, MaxMem=   536870912 cpu:               2.7 elap:               0.7
 (Enter /software/gaussian/g16-c01/avx2/g16/l303.exe)
 DipDrv:  MaxL=1.
 Leave Link  303 at Tue May 28 16:28:53 2024, MaxMem=   536870912 cpu:               0.2 elap:               0.1
 (Enter /software/gaussian/g16-c01/avx2/g16/l401.exe)
 ExpMin= 1.61D-01 ExpMax= 5.48D+03 ExpMxC= 8.25D+02 IAcc=3 IRadAn=         5 AccDes= 0.00D+00
 Harris functional with IExCor= 4639 and IRadAn=       5 diagonalized for initial guess.
 HarFok:  IExCor= 4639 AccDes= 0.00D+00 IRadAn=         5 IDoV= 1 UseB2=F ITyADJ=14
 ICtDFT=  3500011 ScaDFX=  1.000000  1.000000  1.000000  1.000000
 FoFCou: FMM=F IPFlag=           0 FMFlag=      100000 FMFlg1=           0
         NFxFlg=           0 DoJE=T BraDBF=F KetDBF=T FulRan=T
         wScrn=  0.000000 ICntrl=       500 IOpCl=  0 I1Cent=   200000004 NGrid=           0
         NMat0=    1 NMatS0=      1 NMatT0=    0 NMatD0=    1 NMtDS0=    0 NMtDT0=    0
 Symmetry not used in FoFCou.
 Harris En= -676.798842592299    
 JPrj=0 DoOrth=F DoCkMO=F.
 Leave Link  401 at Tue May 28 16:28:56 2024, MaxMem=   536870912 cpu:              10.3 elap:               2.6
 (Enter /software/gaussian/g16-c01/avx2/g16/l502.exe)
 Two-electron integral symmetry not used.
 Closed shell SCF:
 Using DIIS extrapolation, IDIIS=  1040.
 NGot=   536870912 LenX=   536729172 LenY=   536660087
 Requested convergence on RMS density matrix=1.00D-08 within 128 cycles.
 Requested convergence on MAX density matrix=1.00D-06.
 Requested convergence on             energy=1.00D-06.
 No special actions if energy rises.
 Fock matrices will be formed incrementally for  20 cycles.
 Integral accuracy reduced to 1.0D-05 until final iterations.

 Cycle   1  Pass 0  IDiag  1:
 FoFJK:  IHMeth= 1 ICntrl=       0 DoSepK=T KAlg= 0 I1Cent=           0 FoldK=F
 IRaf=         1 NMat=       1 IRICut=       1 DoRegI=T DoRafI=F ISym2E= 0 IDoP0=0 IntGTp=1.
 FoFCou: FMM=F IPFlag=           0 FMFlag=      100000 FMFlg1=           0
         NFxFlg=           0 DoJE=T BraDBF=F KetDBF=F FulRan=T
         wScrn=  0.000000 ICntrl=       500 IOpCl=  0 I1Cent=           0 NGrid=           0
         NMat0=    1 NMatS0=      1 NMatT0=    0 NMatD0=    1 NMtDS0=    0 NMtDT0=    0
 Symmetry not used in FoFCou.
 E= -706.635859225846    
 DIIS: error= 6.78D-02 at cycle   1 NSaved=   1.
 NSaved= 1 IEnMin= 1 EnMin= -706.635859225846     IErMin= 1 ErrMin= 6.78D-02
 ErrMax= 6.78D-02  0.00D+00 EMaxC= 1.00D-01 BMatC= 7.41D-01 BMatP= 7.41D-01
 IDIUse=3 WtCom= 3.22D-01 WtEn= 6.78D-01
 Coeff-Com:  0.100D+01
 Coeff-En:   0.100D+01
 Coeff:      0.100D+01
 Gap=     0.422 Goal=   None    Shift=    0.000
 GapD=    0.422 DampG=2.000 DampE=0.500 DampFc=1.0000 IDamp=-1.
 RMSDP=4.14D-03 MaxDP=1.23D-01              OVMax= 1.70D-01

 Cycle   2  Pass 0  IDiag  1:
 RMSU=  4.14D-03    CP:  1.00D+00
 E= -706.629204769155     Delta-E=        0.006654456691 Rises=F Damp=F
 DIIS: error= 4.17D-02 at cycle   2 NSaved=   2.
 NSaved= 2 IEnMin= 1 EnMin= -706.635859225846     IErMin= 2 ErrMin= 4.17D-02
 ErrMax= 4.17D-02  0.00D+00 EMaxC= 1.00D-01 BMatC= 3.20D-01 BMatP= 7.41D-01
 IDIUse=3 WtCom= 5.83D-01 WtEn= 4.17D-01
 Coeff-Com:  0.359D+00 0.641D+00
 Coeff-En:   0.507D+00 0.493D+00
 Coeff:      0.421D+00 0.579D+00
 Gap=     0.409 Goal=   None    Shift=    0.000
 RMSDP=2.69D-03 MaxDP=9.80D-02 DE= 6.65D-03 OVMax= 1.64D-01

 Cycle   3  Pass 0  IDiag  1:
 RMSU=  1.59D-03    CP:  1.00D+00  4.75D-01
 E= -706.838475454615     Delta-E=       -0.209270685461 Rises=F Damp=F
 DIIS: error= 2.44D-02 at cycle   3 NSaved=   3.
 NSaved= 3 IEnMin= 3 EnMin= -706.838475454615     IErMin= 3 ErrMin= 2.44D-02
 ErrMax= 2.44D-02  0.00D+00 EMaxC= 1.00D-01 BMatC= 8.17D-02 BMatP= 3.20D-01
 IDIUse=3 WtCom= 7.56D-01 WtEn= 2.44D-01
 Coeff-Com:  0.547D-01 0.328D+00 0.618D+00
 Coeff-En:   0.000D+00 0.191D+00 0.809D+00
 Coeff:      0.414D-01 0.294D+00 0.664D+00
 Gap=     0.368 Goal=   None    Shift=    0.000
 RMSDP=1.14D-03 MaxDP=7.92D-02 DE=-2.09D-01 OVMax= 9.63D-02

 Cycle   4  Pass 0  IDiag  1:
 RMSU=  6.84D-04    CP:  1.00D+00  6.19D-01  5.61D-01
 E= -706.891016329205     Delta-E=       -0.052540874590 Rises=F Damp=F
 DIIS: error= 9.57D-03 at cycle   4 NSaved=   4.
 NSaved= 4 IEnMin= 4 EnMin= -706.891016329205     IErMin= 4 ErrMin= 9.57D-03
 ErrMax= 9.57D-03  0.00D+00 EMaxC= 1.00D-01 BMatC= 1.54D-02 BMatP= 8.17D-02
 IDIUse=3 WtCom= 9.04D-01 WtEn= 9.57D-02
 Coeff-Com:  0.116D-02 0.113D+00 0.372D+00 0.514D+00
 Coeff-En:   0.000D+00 0.000D+00 0.141D+00 0.859D+00
 Coeff:      0.105D-02 0.103D+00 0.350D+00 0.547D+00
 Gap=     0.361 Goal=   None    Shift=    0.000
 RMSDP=4.51D-04 MaxDP=3.16D-02 DE=-5.25D-02 OVMax= 3.71D-02

 Cycle   5  Pass 0  IDiag  1:
 RMSU=  1.72D-04    CP:  1.00D+00  6.13D-01  7.08D-01  4.99D-01
 E= -706.902229069460     Delta-E=       -0.011212740255 Rises=F Damp=F
 DIIS: error= 1.85D-03 at cycle   5 NSaved=   5.
 NSaved= 5 IEnMin= 5 EnMin= -706.902229069460     IErMin= 5 ErrMin= 1.85D-03
 ErrMax= 1.85D-03  0.00D+00 EMaxC= 1.00D-01 BMatC= 5.26D-04 BMatP= 1.54D-02
 IDIUse=3 WtCom= 9.81D-01 WtEn= 1.85D-02
 Coeff-Com: -0.136D-02 0.869D-02 0.577D-01 0.207D+00 0.728D+00
 Coeff-En:   0.000D+00 0.000D+00 0.000D+00 0.000D+00 0.100D+01
 Coeff:     -0.134D-02 0.853D-02 0.567D-01 0.203D+00 0.733D+00
 Gap=     0.354 Goal=   None    Shift=    0.000
 RMSDP=8.48D-05 MaxDP=4.20D-03 DE=-1.12D-02 OVMax= 4.65D-03

 Cycle   6  Pass 0  IDiag  1:
 RMSU=  5.60D-05    CP:  1.00D+00  6.14D-01  7.02D-01  5.88D-01  9.04D-01
 E= -706.902618438026     Delta-E=       -0.000389368565 Rises=F Damp=F
 DIIS: error= 3.58D-04 at cycle   6 NSaved=   6.
 NSaved= 6 IEnMin= 6 EnMin= -706.902618438026     IErMin= 6 ErrMin= 3.58D-04
 ErrMax= 3.58D-04  0.00D+00 EMaxC= 1.00D-01 BMatC= 4.77D-05 BMatP= 5.26D-04
 IDIUse=3 WtCom= 9.96D-01 WtEn= 3.58D-03
 Coeff-Com: -0.736D-03-0.115D-01-0.211D-01 0.333D-01 0.349D+00 0.651D+00
 Coeff-En:   0.000D+00 0.000D+00 0.000D+00 0.000D+00 0.000D+00 0.100D+01
 Coeff:     -0.733D-03-0.115D-01-0.211D-01 0.332D-01 0.348D+00 0.652D+00
 Gap=     0.352 Goal=   None    Shift=    0.000
 RMSDP=2.84D-05 MaxDP=1.17D-03 DE=-3.89D-04 OVMax= 1.55D-03

 Cycle   7  Pass 0  IDiag  1:
 RMSU=  1.87D-05    CP:  1.00D+00  6.13D-01  7.05D-01  6.02D-01  9.99D-01
                    CP:  8.39D-01
 E= -706.902668156262     Delta-E=       -0.000049718236 Rises=F Damp=F
 DIIS: error= 7.96D-05 at cycle   7 NSaved=   7.
 NSaved= 7 IEnMin= 7 EnMin= -706.902668156262     IErMin= 7 ErrMin= 7.96D-05
 ErrMax= 7.96D-05  0.00D+00 EMaxC= 1.00D-01 BMatC= 1.84D-06 BMatP= 4.77D-05
 IDIUse=1 WtCom= 1.00D+00 WtEn= 0.00D+00
 Coeff-Com: -0.556D-04-0.425D-02-0.103D-01-0.760D-02 0.223D-01 0.155D+00
 Coeff-Com:  0.845D+00
 Coeff:     -0.556D-04-0.425D-02-0.103D-01-0.760D-02 0.223D-01 0.155D+00
 Coeff:      0.845D+00
 Gap=     0.352 Goal=   None    Shift=    0.000
 RMSDP=1.08D-05 MaxDP=3.61D-04 DE=-4.97D-05 OVMax= 9.46D-04

 Cycle   8  Pass 0  IDiag  1:
 RMSU=  6.50D-06    CP:  1.00D+00  6.13D-01  7.06D-01  6.05D-01  1.03D+00
                    CP:  9.39D-01  1.15D+00
 E= -706.902671615889     Delta-E=       -0.000003459628 Rises=F Damp=F
 DIIS: error= 3.93D-05 at cycle   8 NSaved=   8.
 NSaved= 8 IEnMin= 8 EnMin= -706.902671615889     IErMin= 8 ErrMin= 3.93D-05
 ErrMax= 3.93D-05  0.00D+00 EMaxC= 1.00D-01 BMatC= 4.56D-07 BMatP= 1.84D-06
 IDIUse=1 WtCom= 1.00D+00 WtEn= 0.00D+00
 Coeff-Com:  0.531D-04-0.286D-03-0.161D-02-0.840D-02-0.482D-01-0.366D-01
 Coeff-Com:  0.338D+00 0.757D+00
 Coeff:      0.531D-04-0.286D-03-0.161D-02-0.840D-02-0.482D-01-0.366D-01
 Coeff:      0.338D+00 0.757D+00
 Gap=     0.352 Goal=   None    Shift=    0.000
 RMSDP=5.00D-06 MaxDP=1.61D-04 DE=-3.46D-06 OVMax= 3.17D-04

 Initial convergence to 1.0D-05 achieved.  Increase integral accuracy.
 Cycle   9  Pass 1  IDiag  1:
 E= -706.902703410404     Delta-E=       -0.000031794514 Rises=F Damp=F
 DIIS: error= 2.84D-05 at cycle   1 NSaved=   1.
 NSaved= 1 IEnMin= 1 EnMin= -706.902703410404     IErMin= 1 ErrMin= 2.84D-05
 ErrMax= 2.84D-05  0.00D+00 EMaxC= 1.00D-01 BMatC= 4.75D-07 BMatP= 4.75D-07
 IDIUse=1 WtCom= 1.00D+00 WtEn= 0.00D+00
 Coeff-Com:  0.100D+01
 Coeff:      0.100D+01
 Gap=     0.352 Goal=   None    Shift=    0.000
 RMSDP=5.00D-06 MaxDP=1.61D-04 DE=-3.18D-05 OVMax= 2.28D-04

 Cycle  10  Pass 1  IDiag  1:
 RMSU=  1.78D-05    CP:  1.00D+00
 E= -706.902703813312     Delta-E=       -0.000000402908 Rises=F Damp=F
 DIIS: error= 2.27D-05 at cycle   2 NSaved=   2.
 NSaved= 2 IEnMin= 2 EnMin= -706.902703813312     IErMin= 2 ErrMin= 2.27D-05
 ErrMax= 2.27D-05  0.00D+00 EMaxC= 1.00D-01 BMatC= 9.79D-08 BMatP= 4.75D-07
 IDIUse=1 WtCom= 1.00D+00 WtEn= 0.00D+00
 Coeff-Com:  0.208D+00 0.792D+00
 Coeff:      0.208D+00 0.792D+00
 Gap=     0.352 Goal=   None    Shift=    0.000
 RMSDP=2.10D-06 MaxDP=9.99D-05 DE=-4.03D-07 OVMax= 1.29D-04

 Cycle  11  Pass 1  IDiag  1:
 RMSU=  2.01D-06    CP:  1.00D+00  1.03D+00
 E= -706.902703850285     Delta-E=       -0.000000036973 Rises=F Damp=F
 DIIS: error= 1.99D-05 at cycle   3 NSaved=   3.
 NSaved= 3 IEnMin= 3 EnMin= -706.902703850285     IErMin= 3 ErrMin= 1.99D-05
 ErrMax= 1.99D-05  0.00D+00 EMaxC= 1.00D-01 BMatC= 8.12D-08 BMatP= 9.79D-08
 IDIUse=1 WtCom= 1.00D+00 WtEn= 0.00D+00
 Coeff-Com: -0.385D-01 0.481D+00 0.557D+00
 Coeff:     -0.385D-01 0.481D+00 0.557D+00
 Gap=     0.352 Goal=   None    Shift=    0.000
 RMSDP=9.97D-07 MaxDP=4.73D-05 DE=-3.70D-08 OVMax= 7.70D-05

 Cycle  12  Pass 1  IDiag  1:
 RMSU=  5.94D-07    CP:  1.00D+00  1.05D+00  6.43D-01
 E= -706.902703919218     Delta-E=       -0.000000068934 Rises=F Damp=F
 DIIS: error= 5.20D-06 at cycle   4 NSaved=   4.
 NSaved= 4 IEnMin= 4 EnMin= -706.902703919218     IErMin= 4 ErrMin= 5.20D-06
 ErrMax= 5.20D-06  0.00D+00 EMaxC= 1.00D-01 BMatC= 3.21D-09 BMatP= 8.12D-08
 IDIUse=1 WtCom= 1.00D+00 WtEn= 0.00D+00
 Coeff-Com: -0.300D-01 0.198D+00 0.256D+00 0.576D+00
 Coeff:     -0.300D-01 0.198D+00 0.256D+00 0.576D+00
 Gap=     0.352 Goal=   None    Shift=    0.000
 RMSDP=2.51D-07 MaxDP=1.41D-05 DE=-6.89D-08 OVMax= 1.93D-05

 Cycle  13  Pass 1  IDiag  1:
 RMSU=  2.45D-07    CP:  1.00D+00  1.05D+00  6.65D-01  1.03D+00
 E= -706.902703922621     Delta-E=       -0.000000003403 Rises=F Damp=F
 DIIS: error= 1.62D-06 at cycle   5 NSaved=   5.
 NSaved= 5 IEnMin= 5 EnMin= -706.902703922621     IErMin= 5 ErrMin= 1.62D-06
 ErrMax= 1.62D-06  0.00D+00 EMaxC= 1.00D-01 BMatC= 6.53D-10 BMatP= 3.21D-09
 IDIUse=1 WtCom= 1.00D+00 WtEn= 0.00D+00
 Coeff-Com:  0.967D-03-0.682D-01-0.867D-01 0.239D+00 0.915D+00
 Coeff:      0.967D-03-0.682D-01-0.867D-01 0.239D+00 0.915D+00
 Gap=     0.352 Goal=   None    Shift=    0.000
 RMSDP=1.97D-07 MaxDP=6.14D-06 DE=-3.40D-09 OVMax= 1.66D-05

 Cycle  14  Pass 1  IDiag  1:
 RMSU=  1.06D-07    CP:  1.00D+00  1.05D+00  6.75D-01  1.30D+00  1.09D+00
 E= -706.902703923937     Delta-E=       -0.000000001316 Rises=F Damp=F
 DIIS: error= 6.32D-07 at cycle   6 NSaved=   6.
 NSaved= 6 IEnMin= 6 EnMin= -706.902703923937     IErMin= 6 ErrMin= 6.32D-07
 ErrMax= 6.32D-07  0.00D+00 EMaxC= 1.00D-01 BMatC= 9.13D-11 BMatP= 6.53D-10
 IDIUse=1 WtCom= 1.00D+00 WtEn= 0.00D+00
 Coeff-Com:  0.530D-02-0.586D-01-0.787D-01 0.104D-01 0.374D+00 0.748D+00
 Coeff:      0.530D-02-0.586D-01-0.787D-01 0.104D-01 0.374D+00 0.748D+00
 Gap=     0.352 Goal=   None    Shift=    0.000
 RMSDP=7.35D-08 MaxDP=1.92D-06 DE=-1.32D-09 OVMax= 8.84D-06

 Cycle  15  Pass 1  IDiag  1:
 RMSU=  4.12D-08    CP:  1.00D+00  1.05D+00  6.80D-01  1.38D+00  1.23D+00
                    CP:  1.03D+00
 E= -706.902703924135     Delta-E=       -0.000000000198 Rises=F Damp=F
 DIIS: error= 1.95D-07 at cycle   7 NSaved=   7.
 NSaved= 7 IEnMin= 7 EnMin= -706.902703924135     IErMin= 7 ErrMin= 1.95D-07
 ErrMax= 1.95D-07  0.00D+00 EMaxC= 1.00D-01 BMatC= 1.17D-11 BMatP= 9.13D-11
 IDIUse=1 WtCom= 1.00D+00 WtEn= 0.00D+00
 Coeff-Com:  0.159D-02-0.899D-02-0.135D-01-0.339D-01-0.271D-01 0.247D+00
 Coeff-Com:  0.835D+00
 Coeff:      0.159D-02-0.899D-02-0.135D-01-0.339D-01-0.271D-01 0.247D+00
 Coeff:      0.835D+00
 Gap=     0.352 Goal=   None    Shift=    0.000
 RMSDP=2.82D-08 MaxDP=6.90D-07 DE=-1.98D-10 OVMax= 3.28D-06

 Cycle  16  Pass 1  IDiag  1:
 RMSU=  1.37D-08    CP:  1.00D+00  1.05D+00  6.81D-01  1.41D+00  1.27D+00
                    CP:  1.17D+00  1.11D+00
 E= -706.902703924172     Delta-E=       -0.000000000037 Rises=F Damp=F
 DIIS: error= 9.76D-08 at cycle   8 NSaved=   8.
 NSaved= 8 IEnMin= 8 EnMin= -706.902703924172     IErMin= 8 ErrMin= 9.76D-08
 ErrMax= 9.76D-08  0.00D+00 EMaxC= 1.00D-01 BMatC= 1.62D-12 BMatP= 1.17D-11
 IDIUse=1 WtCom= 1.00D+00 WtEn= 0.00D+00
 Coeff-Com: -0.238D-03 0.574D-02 0.681D-02-0.114D-01-0.677D-01-0.256D-01
 Coeff-Com:  0.269D+00 0.823D+00
 Coeff:     -0.238D-03 0.574D-02 0.681D-02-0.114D-01-0.677D-01-0.256D-01
 Coeff:      0.269D+00 0.823D+00
 Gap=     0.352 Goal=   None    Shift=    0.000
 RMSDP=1.04D-08 MaxDP=2.68D-07 DE=-3.68D-11 OVMax= 1.13D-06

 Cycle  17  Pass 1  IDiag  1:
 RMSU=  6.36D-09    CP:  1.00D+00  1.05D+00  6.82D-01  1.41D+00  1.28D+00
                    CP:  1.22D+00  1.22D+00  1.12D+00
 E= -706.902703924176     Delta-E=       -0.000000000004 Rises=F Damp=F
 DIIS: error= 4.37D-08 at cycle   9 NSaved=   9.
 NSaved= 9 IEnMin= 9 EnMin= -706.902703924176     IErMin= 9 ErrMin= 4.37D-08
 ErrMax= 4.37D-08  0.00D+00 EMaxC= 1.00D-01 BMatC= 2.92D-13 BMatP= 1.62D-12
 IDIUse=1 WtCom= 1.00D+00 WtEn= 0.00D+00
 Coeff-Com: -0.312D-03 0.344D-02 0.435D-02 0.191D-02-0.200D-01-0.438D-01
 Coeff-Com: -0.232D-01 0.321D+00 0.757D+00
 Coeff:     -0.312D-03 0.344D-02 0.435D-02 0.191D-02-0.200D-01-0.438D-01
 Coeff:     -0.232D-01 0.321D+00 0.757D+00
 Gap=     0.352 Goal=   None    Shift=    0.000
 RMSDP=3.73D-09 MaxDP=9.12D-08 DE=-4.09D-12 OVMax= 4.14D-07

 SCF Done:  E(RwB97XD) =  -706.902703924     A.U. after   17 cycles
            NFock= 17  Conv=0.37D-08     -V/T= 2.0099
 KE= 6.999877079244D+02 PE=-3.601962116756D+03 EE= 1.216300565944D+03
 Leave Link  502 at Tue May 28 16:29:49 2024, MaxMem=   536870912 cpu:             208.3 elap:              52.2
 (Enter /software/gaussian/g16-c01/avx2/g16/l601.exe)
 Copying SCF densities to generalized density rwf, IOpCl= 0 IROHF=0.

 **********************************************************************

            Population analysis using the SCF Density.

 **********************************************************************

 Alpha  occ. eigenvalues --  -19.33671 -19.22950 -14.53199 -10.47297 -10.36670
 Alpha  occ. eigenvalues --  -10.35784 -10.31239 -10.30715 -10.30576 -10.30520
 Alpha  occ. eigenvalues --  -10.30412 -10.30330 -10.30217 -10.29851 -10.29540
 Alpha  occ. eigenvalues --  -10.27769  -1.18957  -1.09877  -1.00892  -0.95345
 Alpha  occ. eigenvalues --   -0.94720  -0.85759  -0.84708  -0.84217  -0.83491
 Alpha  occ. eigenvalues --   -0.75161  -0.72099  -0.70668  -0.69648  -0.68398
 Alpha  occ. eigenvalues --   -0.65086  -0.62007  -0.59661  -0.58673  -0.56627
 Alpha  occ. eigenvalues --   -0.55450  -0.53138  -0.52731  -0.52358  -0.52120
 Alpha  occ. eigenvalues --   -0.50915  -0.50518  -0.47504  -0.45593  -0.44955
 Alpha  occ. eigenvalues --   -0.44148  -0.43730  -0.43558  -0.42462  -0.40308
 Alpha  occ. eigenvalues --   -0.35337  -0.32729  -0.32226  -0.31897  -0.30732
 Alpha  occ. eigenvalues --   -0.30222
 Alpha virt. eigenvalues --    0.04963   0.06692   0.06933   0.07177   0.10925
 Alpha virt. eigenvalues --    0.15477   0.16645   0.18096   0.19955   0.23191
 Alpha virt. eigenvalues --    0.23414   0.23984   0.24429   0.25019   0.25191
 Alpha virt. eigenvalues --    0.26705   0.27440   0.27561   0.27855   0.29571
 Alpha virt. eigenvalues --    0.32879   0.35844   0.37614   0.38277   0.38733
 Alpha virt. eigenvalues --    0.40051   0.41682   0.42185   0.42983   0.43969
 Alpha virt. eigenvalues --    0.48408   0.54957   0.56972   0.59429   0.59886
 Alpha virt. eigenvalues --    0.60872   0.61587   0.61683   0.62888   0.63414
 Alpha virt. eigenvalues --    0.63912   0.65344   0.65887   0.66651   0.67683
 Alpha virt. eigenvalues --    0.67927   0.68363   0.68693   0.69073   0.69403
 Alpha virt. eigenvalues --    0.69760   0.69987   0.70294   0.70379   0.70608
 Alpha virt. eigenvalues --    0.71435   0.73938   0.75376   0.75699   0.76614
 Alpha virt. eigenvalues --    0.79364   0.84778   0.85393   0.87607   0.89948
 Alpha virt. eigenvalues --    0.92265   0.92818   0.94096   0.94396   0.94562
 Alpha virt. eigenvalues --    0.94798   0.95647   0.96563   0.96903   0.97491
 Alpha virt. eigenvalues --    0.99065   1.00618   1.02736   1.02972   1.03756
 Alpha virt. eigenvalues --    1.04144   1.04713   1.07448   1.08966   1.10787
 Alpha virt. eigenvalues --    1.12042   1.12565   1.15793   1.18940   1.20716
 Alpha virt. eigenvalues --    1.22548   1.22743   1.24402   1.25792   1.26778
 Alpha virt. eigenvalues --    1.27982   1.31635   1.33120   1.33722   1.34060
 Alpha virt. eigenvalues --    1.36132   1.41123   1.42759   1.46278   1.49941
 Alpha virt. eigenvalues --    1.50644   1.50721   1.53429   1.54559   1.55117
 Alpha virt. eigenvalues --    1.55894   1.56710   1.57345   1.57613   1.58447
 Alpha virt. eigenvalues --    1.58916   1.59761   1.62364   1.64792   1.70376
 Alpha virt. eigenvalues --    1.72174   1.82240   1.83746   1.86072   1.86976
 Alpha virt. eigenvalues --    1.88478   1.90050   1.91128   1.93315   1.95493
 Alpha virt. eigenvalues --    1.96202   1.99320   1.99819   2.00458   2.03346
 Alpha virt. eigenvalues --    2.04819   2.06363   2.07829   2.08237   2.10573
 Alpha virt. eigenvalues --    2.11670   2.12536   2.15540   2.16299   2.19096
 Alpha virt. eigenvalues --    2.20374   2.22392   2.22504   2.22992   2.24186
 Alpha virt. eigenvalues --    2.24935   2.28547   2.29535   2.31126   2.33735
 Alpha virt. eigenvalues --    2.36398   2.38236   2.38648   2.38706   2.41281
 Alpha virt. eigenvalues --    2.42196   2.47960   2.55085   2.58419   2.61021
 Alpha virt. eigenvalues --    2.62188   2.63602   2.66913   2.69595   2.71501
 Alpha virt. eigenvalues --    2.73086   2.73938   2.74763   2.78556   2.80536
 Alpha virt. eigenvalues --    2.81647   2.81807   2.83737   2.84729   2.85274
 Alpha virt. eigenvalues --    2.89491   2.92124   2.95091   3.01989   3.10385
 Alpha virt. eigenvalues --    3.16112   3.16434   3.35342   3.49828   3.51508
 Alpha virt. eigenvalues --    4.10688   4.16232   4.18747   4.19234   4.22131
 Alpha virt. eigenvalues --    4.22361   4.24434   4.26003   4.34869   4.43698
 Alpha virt. eigenvalues --    4.43957   4.45295   4.51000   4.57676   4.80140
 Alpha virt. eigenvalues --    4.84626
          Condensed to atoms (all electrons):
               1          2          3          4          5          6
     1  C    4.972015   0.473642  -0.030731  -0.040115  -0.031328   0.529526
     2  C    0.473642   5.041739   0.596668  -0.057968  -0.037852  -0.034125
     3  C   -0.030731   0.596668   4.583835   0.535759  -0.019977  -0.031157
     4  C   -0.040115  -0.057968   0.535759   4.998297   0.546537  -0.043034
     5  C   -0.031328  -0.037852  -0.019977   0.546537   4.854126   0.555323
     6  C    0.529526  -0.034125  -0.031157  -0.043034   0.555323   4.884444
     7  H    0.376369  -0.035934   0.002743   0.000657   0.003739  -0.042029
     8  H   -0.033556   0.345506  -0.021547   0.004068   0.000080   0.003427
     9  H    0.000346   0.004747  -0.044148   0.360992  -0.032843   0.003847
    10  H    0.003655   0.000595   0.002767  -0.036562   0.371935  -0.036367
    11  H   -0.036963   0.003488   0.000531   0.004295  -0.039655   0.369817
    12  N    0.004819  -0.054153   0.228598  -0.054705   0.003699   0.000084
    13  C    0.001101   0.001421  -0.044530   0.003283  -0.000032  -0.000066
    14  H   -0.000009   0.003119  -0.020654  -0.002457   0.000007  -0.000008
    15  O    0.004290  -0.081313  -0.014918   0.000356  -0.000006  -0.000090
    16  O    0.000003   0.000042   0.000291  -0.000086   0.000000  -0.000000
    17  C   -0.000000   0.000052   0.000043   0.000002  -0.000000   0.000000
    18  C    0.000000  -0.000007  -0.000001   0.000000  -0.000000  -0.000000
    19  C   -0.000000   0.000003   0.000012   0.000000  -0.000000   0.000000
    20  C    0.000000  -0.000000   0.000000   0.000000  -0.000000  -0.000000
    21  H   -0.000000   0.000000   0.000004  -0.000000  -0.000000   0.000000
    22  C    0.000000  -0.000000  -0.000000   0.000000   0.000000  -0.000000
    23  H   -0.000000   0.000002   0.000001   0.000000   0.000000   0.000000
    24  C   -0.000000   0.000000   0.000000  -0.000000   0.000000   0.000000
    25  H    0.000000  -0.000000  -0.000000  -0.000000   0.000000  -0.000000
    26  H    0.000000  -0.000000   0.000000  -0.000000   0.000000  -0.000000
    27  H   -0.000000   0.000000  -0.000000   0.000000   0.000000   0.000000
               7          8          9         10         11         12
     1  C    0.376369  -0.033556   0.000346   0.003655  -0.036963   0.004819
     2  C   -0.035934   0.345506   0.004747   0.000595   0.003488  -0.054153
     3  C    0.002743  -0.021547  -0.044148   0.002767   0.000531   0.228598
     4  C    0.000657   0.004068   0.360992  -0.036562   0.004295  -0.054705
     5  C    0.003739   0.000080  -0.032843   0.371935  -0.039655   0.003699
     6  C   -0.042029   0.003427   0.003847  -0.036367   0.369817   0.000084
     7  H    0.528162  -0.004092   0.000013  -0.000151  -0.003568  -0.000084
     8  H   -0.004092   0.402082  -0.000112   0.000007  -0.000095  -0.004212
     9  H    0.000013  -0.000112   0.553399  -0.004250  -0.000137  -0.006270
    10  H   -0.000151   0.000007  -0.004250   0.531478  -0.003902  -0.000078
    11  H   -0.003568  -0.000095  -0.000137  -0.003902   0.541030   0.000003
    12  N   -0.000084  -0.004212  -0.006270  -0.000078   0.000003   7.067696
    13  C    0.000011  -0.011009   0.000137   0.000001   0.000000   0.342775
    14  H    0.000002  -0.000366   0.003856  -0.000004  -0.000000   0.301446
    15  O    0.000113   0.025239   0.000007   0.000000   0.000000  -0.069563
    16  O    0.000000   0.000209  -0.000000  -0.000000   0.000000  -0.063761
    17  C    0.000000   0.000016   0.000000   0.000000  -0.000000  -0.000521
    18  C    0.000000  -0.000011   0.000000   0.000000   0.000000  -0.000122
    19  C   -0.000000   0.000008  -0.000000   0.000000  -0.000000   0.000145
    20  C   -0.000000   0.000000   0.000000   0.000000   0.000000  -0.000004
    21  H   -0.000000  -0.000001  -0.000000  -0.000000  -0.000000  -0.000043
    22  C    0.000000   0.000000   0.000000   0.000000   0.000000   0.000002
    23  H   -0.000000  -0.000004  -0.000000  -0.000000  -0.000000  -0.000039
    24  C   -0.000000   0.000000  -0.000000  -0.000000  -0.000000   0.000000
    25  H    0.000000  -0.000000   0.000000  -0.000000   0.000000  -0.000000
    26  H    0.000000  -0.000000  -0.000000  -0.000000   0.000000  -0.000000
    27  H   -0.000000  -0.000000  -0.000000   0.000000  -0.000000   0.000000
              13         14         15         16         17         18
     1  C    0.001101  -0.000009   0.004290   0.000003  -0.000000   0.000000
     2  C    0.001421   0.003119  -0.081313   0.000042   0.000052  -0.000007
     3  C   -0.044530  -0.020654  -0.014918   0.000291   0.000043  -0.000001
     4  C    0.003283  -0.002457   0.000356  -0.000086   0.000002   0.000000
     5  C   -0.000032   0.000007  -0.000006   0.000000  -0.000000  -0.000000
     6  C   -0.000066  -0.000008  -0.000090  -0.000000   0.000000  -0.000000
     7  H    0.000011   0.000002   0.000113   0.000000   0.000000   0.000000
     8  H   -0.011009  -0.000366   0.025239   0.000209   0.000016  -0.000011
     9  H    0.000137   0.003856   0.000007  -0.000000   0.000000   0.000000
    10  H    0.000001  -0.000004   0.000000  -0.000000   0.000000   0.000000
    11  H    0.000000  -0.000000   0.000000   0.000000  -0.000000   0.000000
    12  N    0.342775   0.301446  -0.069563  -0.063761  -0.000521  -0.000122
    13  C    4.287863  -0.014195   0.410216   0.245865  -0.018017  -0.002978
    14  H   -0.014195   0.345506   0.002593   0.003801   0.000055   0.000035
    15  O    0.410216   0.002593   8.362815  -0.050532  -0.002542  -0.000604
    16  O    0.245865   0.003801  -0.050532   8.344993   0.186001  -0.045722
    17  C   -0.018017   0.000055  -0.002542   0.186001   4.529401   0.548991
    18  C   -0.002978   0.000035  -0.000604  -0.045722   0.548991   4.965195
    19  C   -0.004427   0.000005   0.006644  -0.041871   0.554165  -0.060786
    20  C   -0.000160   0.000000  -0.000166   0.003773  -0.020817   0.516889
    21  H    0.000720   0.000045   0.000027  -0.001839  -0.038275   0.363204
    22  C   -0.000020  -0.000000  -0.000454   0.003790  -0.017105  -0.036075
    23  H    0.000734   0.000001   0.000613  -0.003212  -0.031900   0.005274
    24  C    0.000082  -0.000000   0.000073  -0.000032  -0.033708  -0.041220
    25  H   -0.000007   0.000000  -0.000000  -0.000043   0.002662  -0.033525
    26  H   -0.000011   0.000000  -0.000009  -0.000041   0.002609   0.000492
    27  H    0.000000  -0.000000   0.000000   0.000001   0.000609   0.003849
              19         20         21         22         23         24
     1  C   -0.000000   0.000000  -0.000000   0.000000  -0.000000  -0.000000
     2  C    0.000003  -0.000000   0.000000  -0.000000   0.000002   0.000000
     3  C    0.000012   0.000000   0.000004  -0.000000   0.000001   0.000000
     4  C    0.000000   0.000000  -0.000000   0.000000   0.000000  -0.000000
     5  C   -0.000000  -0.000000  -0.000000   0.000000   0.000000   0.000000
     6  C    0.000000  -0.000000   0.000000  -0.000000   0.000000   0.000000
     7  H   -0.000000  -0.000000  -0.000000   0.000000  -0.000000  -0.000000
     8  H    0.000008   0.000000  -0.000001   0.000000  -0.000004   0.000000
     9  H   -0.000000   0.000000  -0.000000   0.000000  -0.000000  -0.000000
    10  H    0.000000   0.000000  -0.000000   0.000000  -0.000000  -0.000000
    11  H   -0.000000   0.000000  -0.000000   0.000000  -0.000000  -0.000000
    12  N    0.000145  -0.000004  -0.000043   0.000002  -0.000039   0.000000
    13  C   -0.004427  -0.000160   0.000720  -0.000020   0.000734   0.000082
    14  H    0.000005   0.000000   0.000045  -0.000000   0.000001  -0.000000
    15  O    0.006644  -0.000166   0.000027  -0.000454   0.000613   0.000073
    16  O   -0.041871   0.003773  -0.001839   0.003790  -0.003212  -0.000032
    17  C    0.554165  -0.020817  -0.038275  -0.017105  -0.031900  -0.033708
    18  C   -0.060786   0.516889   0.363204  -0.036075   0.005274  -0.041220
    19  C    4.918093  -0.035002   0.005334   0.514495   0.365222  -0.039470
    20  C   -0.035002   4.887522  -0.036832  -0.033083   0.000070   0.553908
    21  H    0.005334  -0.036832   0.537486   0.000062  -0.000118   0.004159
    22  C    0.514495  -0.033083   0.000062   4.898555  -0.038832   0.548358
    23  H    0.365222   0.000070  -0.000118  -0.038832   0.518908   0.004081
    24  C   -0.039470   0.553908   0.004159   0.548358   0.004081   4.868124
    25  H    0.000456   0.370418  -0.004417   0.003766   0.000011  -0.037259
    26  H   -0.032571   0.003767   0.000012   0.370560  -0.004240  -0.037996
    27  H    0.003707  -0.038090  -0.000135  -0.037794  -0.000129   0.371905
              25         26         27
     1  C    0.000000   0.000000  -0.000000
     2  C   -0.000000  -0.000000   0.000000
     3  C   -0.000000   0.000000  -0.000000
     4  C   -0.000000  -0.000000   0.000000
     5  C    0.000000   0.000000   0.000000
     6  C   -0.000000  -0.000000   0.000000
     7  H    0.000000   0.000000  -0.000000
     8  H   -0.000000  -0.000000  -0.000000
     9  H    0.000000  -0.000000  -0.000000
    10  H   -0.000000  -0.000000   0.000000
    11  H    0.000000   0.000000  -0.000000
    12  N   -0.000000  -0.000000   0.000000
    13  C   -0.000007  -0.000011   0.000000
    14  H    0.000000   0.000000  -0.000000
    15  O   -0.000000  -0.000009   0.000000
    16  O   -0.000043  -0.000041   0.000001
    17  C    0.002662   0.002609   0.000609
    18  C   -0.033525   0.000492   0.003849
    19  C    0.000456  -0.032571   0.003707
    20  C    0.370418   0.003767  -0.038090
    21  H   -0.004417   0.000012  -0.000135
    22  C    0.003766   0.370560  -0.037794
    23  H    0.000011  -0.004240  -0.000129
    24  C   -0.037259  -0.037996   0.371905
    25  H    0.527703  -0.000153  -0.003822
    26  H   -0.000153   0.525610  -0.003805
    27  H   -0.003822  -0.003805   0.533884
 Mulliken charges:
               1
     1  C   -0.193065
     2  C   -0.169670
     3  C    0.276410
     4  C   -0.219319
     5  C   -0.173754
     6  C   -0.159590
     7  H    0.174049
     8  H    0.294363
     9  H    0.160415
    10  H    0.170877
    11  H    0.165157
    12  N   -0.695714
    13  C    0.801242
    14  H    0.377222
    15  O   -0.592788
    16  O   -0.581632
    17  C    0.338280
    18  C   -0.182878
    19  C   -0.154160
    20  C   -0.172191
    21  H    0.170605
    22  C   -0.176226
    23  H    0.183559
    24  C   -0.161004
    25  H    0.174211
    26  H    0.175777
    27  H    0.169821
 Sum of Mulliken charges =  -0.00000
 Mulliken charges with hydrogens summed into heavy atoms:
               1
     1  C   -0.019016
     2  C    0.124694
     3  C    0.276410
     4  C   -0.058904
     5  C   -0.002877
     6  C    0.005567
    12  N   -0.318491
    13  C    0.801242
    15  O   -0.592788
    16  O   -0.581632
    17  C    0.338280
    18  C   -0.012273
    19  C    0.029399
    20  C    0.002020
    22  C   -0.000449
    24  C    0.008817
 Electronic spatial extent (au):  <R**2>=           9474.1688
 Charge=             -0.0000 electrons
 Dipole moment (field-independent basis, Debye):
    X=             -0.0655    Y=              2.5097    Z=              0.7446  Tot=              2.6187
 Quadrupole moment (field-independent basis, Debye-Ang):
   XX=            -82.1120   YY=            -82.4546   ZZ=            -88.3986
   XY=              1.1747   XZ=              5.3667   YZ=              0.0757
 Traceless Quadrupole moment (field-independent basis, Debye-Ang):
   XX=              2.2098   YY=              1.8671   ZZ=             -4.0769
   XY=              1.1747   XZ=              5.3667   YZ=              0.0757
 Octapole moment (field-independent basis, Debye-Ang**2):
  XXX=           -858.2394  YYY=            164.4267  ZZZ=            -97.2195  XYY=           -268.3138
  XXY=              1.9608  XXZ=             -1.5213  XZZ=           -260.9181  YZZ=             48.2545
  YYZ=            -38.2219  XYZ=             -4.6562
 Hexadecapole moment (field-independent basis, Debye-Ang**3):
 XXXX=         -10776.5176 YYYY=          -1063.3250 ZZZZ=           -588.5292 XXXY=            556.4457
 XXXZ=           -589.3212 YYYX=           1070.6816 YYYZ=            187.9858 ZZZX=           -717.3382
 ZZZY=            174.4999 XXYY=          -1737.1797 XXZZ=          -1699.2046 YYZZ=           -292.6194
 XXYZ=             -2.7402 YYXZ=           -259.4053 ZZXY=            329.0899
 N-N= 9.787711389637D+02 E-N=-3.601962118489D+03  KE= 6.999877079244D+02
 No NMR shielding tensors so no spin-rotation constants.
 Leave Link  601 at Tue May 28 16:29:49 2024, MaxMem=   536870912 cpu:               1.0 elap:               0.3
 (Enter /software/gaussian/g16-c01/avx2/g16/l701.exe)
 ... and contract with generalized density number  0.
 Compute integral first derivatives.
 R6Disp: Adding Grimme-D2 dispersion energy 1st derivatives to the gradient.
 Leave Link  701 at Tue May 28 16:29:49 2024, MaxMem=   536870912 cpu:               1.2 elap:               0.3
 (Enter /software/gaussian/g16-c01/avx2/g16/l702.exe)
 L702 exits ... SP integral derivatives will be done elsewhere.
 Leave Link  702 at Tue May 28 16:29:49 2024, MaxMem=   536870912 cpu:               0.1 elap:               0.0
 (Enter /software/gaussian/g16-c01/avx2/g16/l703.exe)
 Integral derivatives from FoFJK, PRISM(SPDF).
 Compute integral first derivatives, UseDBF=F ICtDFT=           0.
 Calling FoFJK, ICntrl=      2127 FMM=F ISym2X=0 I1Cent= 0 IOpClX= 0 NMat=1 NMatS=1 NMatT=0.
 FoFJK:  IHMeth= 1 ICntrl=    2127 DoSepK=T KAlg= 0 I1Cent=           0 FoldK=F
 IRaf=         1 NMat=       1 IRICut=       1 DoRegI=T DoRafI=F ISym2E= 0 IDoP0=0 IntGTp=1.
 FoFCou: FMM=F IPFlag=           0 FMFlag=      100000 FMFlg1=         800
         NFxFlg=           0 DoJE=F BraDBF=F KetDBF=F FulRan=T
         wScrn=  0.000000 ICntrl=      2527 IOpCl=  0 I1Cent=           0 NGrid=           0
         NMat0=    1 NMatS0=      1 NMatT0=    0 NMatD0=    1 NMtDS0=    0 NMtDT0=    0
 Symmetry not used in FoFCou.
 Leave Link  703 at Tue May 28 16:30:06 2024, MaxMem=   536870912 cpu:              67.8 elap:              17.0
 (Enter /software/gaussian/g16-c01/avx2/g16/l716.exe)
 Dipole        =-2.57630472D-02 9.87400888D-01 2.92929428D-01
 -------------------------------------------------------------------
 Center     Atomic                   Forces (Hartrees/Bohr)
 Number     Number              X              Y              Z
 -------------------------------------------------------------------
      1        6          -0.000275864    0.034120343    0.000187911
      2        6          -0.037156446   -0.001539842    0.000115611
      3        6           0.006566115    0.001992378   -0.001382108
      4        6          -0.001336416   -0.013393861   -0.000049604
      5        6           0.017098542   -0.015120798    0.000039198
      6        6           0.016095463    0.002773178   -0.000045220
      7        1          -0.000966029   -0.010958585   -0.000026598
      8        1          -0.009840727   -0.000040254    0.000116247
      9        1           0.002289516    0.012713313   -0.000046997
     10        1          -0.006996891    0.008599503    0.000050660
     11        1          -0.011724900   -0.002347926    0.000007106
     12        7          -0.045263325    0.007808397   -0.001844701
     13        6           0.029785008   -0.187653197   -0.000532542
     14        1           0.000880778    0.010619683    0.000677446
     15        8           0.096688257    0.158936695    0.000315492
     16        8          -0.048397694   -0.021082625    0.015704716
     17        6           0.005987008   -0.006969977   -0.000444108
     18        6           0.003906821   -0.008066718   -0.012327167
     19        6           0.002117114    0.004743935    0.013761411
     20        6          -0.001835161   -0.002884642   -0.023330350
     21        1          -0.005526666    0.008948733    0.004827303
     22        6          -0.008330249    0.019222637    0.012608173
     23        1          -0.003918085    0.000351571   -0.009834107
     24        6          -0.010773600    0.013418227   -0.008291895
     25        1           0.001127750    0.001713126    0.010864960
     26        1           0.003711666   -0.007998450   -0.006562518
     27        1           0.006088016   -0.007904842    0.005441679
 -------------------------------------------------------------------
 Cartesian Forces:  Max     0.187653197 RMS     0.031983328
 Leave Link  716 at Tue May 28 16:30:06 2024, MaxMem=   536870912 cpu:               0.1 elap:               0.1
 (Enter /software/gaussian/g16-c01/avx2/g16/l103.exe)

 GradGradGradGradGradGradGradGradGradGradGradGradGradGradGradGradGradGrad
 Berny optimization.
 FormGI is forming the generalized inverse of G from B-inverse, IUseBI=4.
 Internal  Forces:  Max     0.177284148 RMS     0.031178905
 Search for a local minimum.
 Step number   1 out of a maximum of  141
 All quantities printed in internal units (Hartrees-Bohrs-Radians)
 RMS Force = .31179D-01 SwitMx=.10000D-02 MixMth= 1
 Mixed Optimization -- RFO/linear search
 Second derivative matrix not updated -- first step.
 ITU=  0
     Eigenvalues ---    0.00766   0.01295   0.01295   0.01669   0.01929
     Eigenvalues ---    0.01933   0.02070   0.02070   0.02070   0.02070
     Eigenvalues ---    0.02070   0.02070   0.02070   0.02070   0.02070
     Eigenvalues ---    0.02070   0.02070   0.02070   0.02070   0.02070
     Eigenvalues ---    0.02070   0.02070   0.02498   0.03099   0.16000
     Eigenvalues ---    0.16000   0.16000   0.16000   0.16000   0.16000
     Eigenvalues ---    0.16000   0.16000   0.16000   0.16000   0.16000
     Eigenvalues ---    0.22000   0.22000   0.22000   0.22000   0.22000
     Eigenvalues ---    0.23485   0.23485   0.25000   0.25000   0.25000
     Eigenvalues ---    0.25000   0.25000   0.35740   0.37230   0.37230
     Eigenvalues ---    0.37230   0.37230   0.37230   0.37230   0.37230
     Eigenvalues ---    0.37230   0.37230   0.37230   0.40989   0.40989
     Eigenvalues ---    0.40989   0.41268   0.41268   0.41459   0.41459
     Eigenvalues ---    0.45389   0.45389   0.45389   0.45389   0.45389
     Eigenvalues ---    0.45389   0.45389   0.45389   0.47688   0.69002
 RFO step:  Lambda=-2.40732151D-01 EMin= 7.65814503D-03
 Linear search not attempted -- first point.
 Maximum step size (   0.300) exceeded in Quadratic search.
    -- Step size scaled by   0.439
 Iteration  1 RMS(Cart)=  0.25330315 RMS(Int)=  0.01111088
 Iteration  2 RMS(Cart)=  0.05987835 RMS(Int)=  0.00061729
 Iteration  3 RMS(Cart)=  0.00171695 RMS(Int)=  0.00001803
 Iteration  4 RMS(Cart)=  0.00000042 RMS(Int)=  0.00001802
 ITry= 1 IFail=0 DXMaxC= 1.15D+00 DCOld= 1.00D+10 DXMaxT= 3.00D-01 DXLimC= 3.00D+00 Rises=F
 Variable       Old X    -DE/DX   Delta X   Delta X   Delta X     New X
                                 (Linear)    (Quad)   (Total)
    R1        2.64826  -0.00406   0.00000  -0.00237  -0.00238   2.64589
    R2        2.64826  -0.01477   0.00000  -0.00950  -0.00951   2.63875
    R3        2.02201   0.01088   0.00000   0.00779   0.00779   2.02979
    R4        2.64826   0.00646   0.00000   0.00444   0.00445   2.65271
    R5        2.02201  -0.00709   0.00000  -0.00507  -0.00507   2.01693
    R6        2.64826  -0.00107   0.00000  -0.00051  -0.00050   2.64777
    R7        2.77790   0.02047   0.00000   0.01502   0.01502   2.79291
    R8        2.64826  -0.01343   0.00000  -0.00868  -0.00867   2.63959
    R9        2.02201   0.01289   0.00000   0.00923   0.00923   2.03123
   R10        2.64826  -0.01747   0.00000  -0.01140  -0.01141   2.63686
   R11        2.02201   0.01100   0.00000   0.00787   0.00787   2.02988
   R12        2.02201   0.01191   0.00000   0.00853   0.00853   2.03053
   R13        2.44455   0.07540   0.00000   0.03554   0.03554   2.48009
   R14        1.88973   0.01053   0.00000   0.00644   0.00644   1.89616
   R15        2.70231  -0.17728   0.00000  -0.11955  -0.11955   2.58276
   R16        2.70231  -0.05542   0.00000  -0.03737  -0.03737   2.66494
   R17        2.70231  -0.02040   0.00000  -0.01376  -0.01376   2.68855
   R18        2.64826  -0.01561   0.00000  -0.00996  -0.00995   2.63831
   R19        2.64826  -0.01587   0.00000  -0.01013  -0.01013   2.63814
   R20        2.64826  -0.00975   0.00000  -0.00615  -0.00615   2.64211
   R21        2.02201   0.01148   0.00000   0.00821   0.00821   2.03022
   R22        2.64826  -0.01086   0.00000  -0.00687  -0.00687   2.64139
   R23        2.02201   0.01028   0.00000   0.00735   0.00735   2.02936
   R24        2.64826  -0.00878   0.00000  -0.00544  -0.00545   2.64282
   R25        2.02201   0.01100   0.00000   0.00787   0.00787   2.02988
   R26        2.64826  -0.00761   0.00000  -0.00471  -0.00471   2.64355
   R27        2.02201   0.01093   0.00000   0.00782   0.00782   2.02983
   R28        2.02201   0.01136   0.00000   0.00813   0.00813   2.03014
    A1        2.09440   0.01119   0.00000   0.01050   0.01048   2.10488
    A2        2.09440  -0.00726   0.00000  -0.00708  -0.00707   2.08733
    A3        2.09440  -0.00392   0.00000  -0.00342  -0.00341   2.09098
    A4        2.09440  -0.00076   0.00000  -0.00007  -0.00006   2.09434
    A5        2.09440  -0.00652   0.00000  -0.00752  -0.00752   2.08687
    A6        2.09440   0.00728   0.00000   0.00759   0.00758   2.10198
    A7        2.09440  -0.02031   0.00000  -0.01757  -0.01755   2.07685
    A8        2.09440   0.10472   0.00000   0.09333   0.09332   2.18771
    A9        2.09440  -0.08440   0.00000  -0.07576  -0.07577   2.01863
   A10        2.09440   0.01550   0.00000   0.01454   0.01455   2.10895
   A11        2.09440  -0.00696   0.00000  -0.00641  -0.00641   2.08798
   A12        2.09440  -0.00854   0.00000  -0.00813  -0.00814   2.08625
   A13        2.09440   0.00123   0.00000   0.00013   0.00012   2.09452
   A14        2.09440  -0.00202   0.00000  -0.00160  -0.00160   2.09280
   A15        2.09440   0.00079   0.00000   0.00147   0.00147   2.09587
   A16        2.09440  -0.00685   0.00000  -0.00753  -0.00755   2.08684
   A17        2.09440   0.00448   0.00000   0.00492   0.00493   2.09932
   A18        2.09440   0.00237   0.00000   0.00261   0.00262   2.09702
   A19        2.09440   0.16852   0.00000   0.16048   0.16048   2.25488
   A20        2.09440  -0.08583   0.00000  -0.08195  -0.08195   2.01244
   A21        2.09440  -0.08269   0.00000  -0.07853  -0.07853   2.01587
   A22        2.09440   0.11554   0.00000   0.10330   0.10330   2.19770
   A23        2.09440  -0.07870   0.00000  -0.07036  -0.07037   2.02403
   A24        2.09440  -0.03684   0.00000  -0.03294  -0.03294   2.06145
   A25        1.91063   0.02010   0.00000   0.01798   0.01798   1.92861
   A26        2.09440  -0.00659   0.00000  -0.00579  -0.00579   2.08860
   A27        2.09440  -0.00272   0.00000  -0.00233  -0.00233   2.09206
   A28        2.09440   0.00930   0.00000   0.00811   0.00812   2.10251
   A29        2.09440  -0.00456   0.00000  -0.00438  -0.00438   2.09002
   A30        2.09440   0.00084   0.00000   0.00062   0.00062   2.09501
   A31        2.09440   0.00371   0.00000   0.00377   0.00376   2.09816
   A32        2.09440  -0.00486   0.00000  -0.00471  -0.00471   2.08969
   A33        2.09440   0.00025   0.00000  -0.00003  -0.00003   2.09436
   A34        2.09440   0.00461   0.00000   0.00474   0.00474   2.09914
   A35        2.09440   0.00015   0.00000   0.00041   0.00040   2.09480
   A36        2.09440  -0.00122   0.00000  -0.00145  -0.00145   2.09294
   A37        2.09440   0.00106   0.00000   0.00104   0.00105   2.09544
   A38        2.09440   0.00074   0.00000   0.00093   0.00092   2.09532
   A39        2.09440  -0.00150   0.00000  -0.00170  -0.00170   2.09270
   A40        2.09440   0.00076   0.00000   0.00077   0.00078   2.09517
   A41        2.09440  -0.00079   0.00000  -0.00035  -0.00036   2.09404
   A42        2.09440   0.00029   0.00000   0.00006   0.00006   2.09446
   A43        2.09440   0.00050   0.00000   0.00029   0.00030   2.09469
    D1       -0.00000   0.00001   0.00000   0.00001   0.00001   0.00001
    D2        3.14159  -0.00008   0.00000  -0.00013  -0.00013   3.14146
    D3        3.14159   0.00002   0.00000   0.00003   0.00003  -3.14157
    D4       -0.00000  -0.00006   0.00000  -0.00011  -0.00011  -0.00011
    D5        0.00000  -0.00002   0.00000  -0.00003  -0.00003  -0.00003
    D6        3.14159  -0.00001   0.00000  -0.00001  -0.00001   3.14158
    D7       -3.14159  -0.00003   0.00000  -0.00005  -0.00005   3.14155
    D8        0.00000  -0.00002   0.00000  -0.00003  -0.00003  -0.00003
    D9        0.00000  -0.00000   0.00000  -0.00000  -0.00000   0.00000
   D10       -3.14159  -0.00015   0.00000  -0.00025  -0.00026   3.14133
   D11        3.14159   0.00008   0.00000   0.00014   0.00014  -3.14145
   D12       -0.00000  -0.00006   0.00000  -0.00011  -0.00012  -0.00012
   D13       -0.00000   0.00001   0.00000   0.00001   0.00001   0.00001
   D14       -3.14159  -0.00001   0.00000  -0.00001  -0.00001   3.14158
   D15       -3.14159   0.00015   0.00000   0.00026   0.00024  -3.14135
   D16        0.00000   0.00014   0.00000   0.00023   0.00022   0.00023
   D17       -0.00000   0.00041   0.00000   0.00070   0.00070   0.00070
   D18       -3.14159   0.00006   0.00000   0.00012   0.00012  -3.14147
   D19        3.14159   0.00026   0.00000   0.00046   0.00045  -3.14114
   D20       -0.00000  -0.00008   0.00000  -0.00013  -0.00013  -0.00013
   D21       -0.00000  -0.00002   0.00000  -0.00003  -0.00003  -0.00003
   D22        3.14159  -0.00001   0.00000  -0.00001  -0.00001   3.14158
   D23        3.14159  -0.00000   0.00000  -0.00001  -0.00001   3.14158
   D24       -0.00000   0.00001   0.00000   0.00001   0.00001   0.00000
   D25       -0.00000   0.00002   0.00000   0.00004   0.00004   0.00004
   D26       -3.14159   0.00001   0.00000   0.00002   0.00002  -3.14157
   D27       -3.14159   0.00001   0.00000   0.00002   0.00002  -3.14157
   D28        0.00000   0.00000   0.00000   0.00000  -0.00000   0.00000
   D29       -0.00000   0.00034   0.00000   0.00058   0.00063   0.00063
   D30        3.14159  -0.00211   0.00000  -0.00347  -0.00352   3.13807
   D31        3.14159   0.00068   0.00000   0.00116   0.00121  -3.14039
   D32       -0.00000  -0.00177   0.00000  -0.00288  -0.00294  -0.00294
   D33        2.61799   0.00382   0.00000   0.00650   0.00639   2.62438
   D34       -0.52360   0.00137   0.00000   0.00246   0.00258  -0.52102
   D35       -1.57080  -0.00118   0.00000  -0.00201  -0.00200  -1.57280
   D36        1.57080   0.00070   0.00000   0.00118   0.00117   1.57197
   D37        3.14159   0.00173   0.00000   0.00292   0.00292  -3.13868
   D38       -0.00000   0.00157   0.00000   0.00264   0.00264   0.00264
   D39       -0.00000  -0.00016   0.00000  -0.00027  -0.00027  -0.00027
   D40        3.14159  -0.00032   0.00000  -0.00055  -0.00055   3.14104
   D41       -3.14159  -0.00177   0.00000  -0.00297  -0.00298   3.13861
   D42        0.00000  -0.00200   0.00000  -0.00337  -0.00337  -0.00337
   D43        0.00000   0.00012   0.00000   0.00021   0.00022   0.00022
   D44       -3.14159  -0.00011   0.00000  -0.00018  -0.00018   3.14142
   D45        0.00000   0.00002   0.00000   0.00003   0.00003   0.00003
   D46        3.14159   0.00002   0.00000   0.00004   0.00004  -3.14156
   D47       -3.14159   0.00018   0.00000   0.00031   0.00031  -3.14129
   D48       -0.00000   0.00019   0.00000   0.00031   0.00031   0.00031
   D49        0.00000   0.00005   0.00000   0.00008   0.00008   0.00008
   D50       -3.14159  -0.00020   0.00000  -0.00034  -0.00034   3.14125
   D51        3.14159   0.00028   0.00000   0.00047   0.00047  -3.14112
   D52       -0.00000   0.00003   0.00000   0.00005   0.00005   0.00005
   D53        0.00000   0.00016   0.00000   0.00026   0.00026   0.00027
   D54       -3.14159   0.00013   0.00000   0.00022   0.00022  -3.14138
   D55       -3.14159   0.00015   0.00000   0.00026   0.00026  -3.14133
   D56        0.00000   0.00012   0.00000   0.00021   0.00021   0.00021
   D57       -0.00000  -0.00019   0.00000  -0.00032  -0.00032  -0.00032
   D58        3.14159  -0.00016   0.00000  -0.00027  -0.00027   3.14132
   D59        3.14159   0.00006   0.00000   0.00010   0.00010  -3.14149
   D60       -0.00000   0.00009   0.00000   0.00015   0.00015   0.00015
         Item               Value     Threshold  Converged?
 Maximum Force            0.177284     0.000450     NO 
 RMS     Force            0.031179     0.000300     NO 
 Maximum Displacement     1.149389     0.001800     NO 
 RMS     Displacement     0.305389     0.001200     NO 
 Predicted change in Energy=-9.329678D-02
 Lowest energy point so far.  Saving SCF results.
 GradGradGradGradGradGradGradGradGradGradGradGradGradGradGradGradGradGrad

 Leave Link  103 at Tue May 28 16:30:06 2024, MaxMem=   536870912 cpu:               0.1 elap:               0.1
 (Enter /software/gaussian/g16-c01/avx2/g16/l202.exe)
                          Input orientation:                          
 ---------------------------------------------------------------------
 Center     Atomic      Atomic             Coordinates (Angstroms)
 Number     Number       Type             X           Y           Z
 ---------------------------------------------------------------------
      1          6           0       -0.828397   -1.198585   -0.155052
      2          6           0        0.565459   -1.068705   -0.128665
      3          6           0        1.150691    0.206280   -0.079182
      4          6           0        0.320069    1.334446   -0.056971
      5          6           0       -1.070066    1.200633   -0.083408
      6          6           0       -1.648158   -0.068394   -0.132614
      7          1           0       -1.269348   -2.177291   -0.192878
      8          1           0        1.176388   -1.943700   -0.146295
      9          1           0        0.757288    2.315659   -0.019092
     10          1           0       -1.692801    2.075689   -0.065821
     11          1           0       -2.717272   -0.174003   -0.153049
[...]
    24  C    3.405068   1.392921   3.404836   0.000000
    25  H    2.493993   3.395412   4.961423   2.153709   0.000000
    26  H    4.953538   1.085668   2.480855   2.152822   4.294596
    27  H    4.305720   2.152823   4.301242   1.085505   2.483721
                   26         27
    26  H    0.000000
    27  H    2.481223   0.000000
 Symmetry turned off by external request.
 Stoichiometry    C13H11NO2
 Framework group  C1[X(C13H11NO2)]
 Deg. of freedom    75
 Full point group                 C1      NOp   1
 Rotational constants (GHZ):           2.2248331           0.2073741           0.1962873
 Leave Link  202 at Tue May 28 16:50:25 2024, MaxMem=   536870912 cpu:               0.0 elap:               0.0
 (Enter /software/gaussian/g16-c01/avx2/g16/l601.exe)
 Copying SCF densities to generalized density rwf, IOpCl= 0 IROHF=0.

 **********************************************************************

            Population analysis using the SCF Density.

 **********************************************************************

 Alpha  occ. eigenvalues --  -19.32840 -19.25558 -14.50097 -10.46265 -10.36594
 Alpha  occ. eigenvalues --  -10.35364 -10.30734 -10.30646 -10.30613 -10.30557
 Alpha  occ. eigenvalues --  -10.30519 -10.30466 -10.30291 -10.30182 -10.29716
 Alpha  occ. eigenvalues --  -10.29548  -1.22596  -1.13166  -1.05738  -0.96172
 Alpha  occ. eigenvalues --   -0.94928  -0.86675  -0.85155  -0.84737  -0.83437
 Alpha  occ. eigenvalues --   -0.75851  -0.72017  -0.71076  -0.69603  -0.66557
 Alpha  occ. eigenvalues --   -0.64740  -0.62239  -0.59831  -0.58331  -0.57528
 Alpha  occ. eigenvalues --   -0.55830  -0.53889  -0.52859  -0.52710  -0.52009
 Alpha  occ. eigenvalues --   -0.51167  -0.50629  -0.50034  -0.47293  -0.45516
 Alpha  occ. eigenvalues --   -0.44676  -0.44306  -0.43653  -0.42807  -0.40728
 Alpha  occ. eigenvalues --   -0.39415  -0.36787  -0.32980  -0.32818  -0.31894
 Alpha  occ. eigenvalues --   -0.29391
 Alpha virt. eigenvalues --    0.06002   0.06751   0.06972   0.07635   0.14118
 Alpha virt. eigenvalues --    0.16301   0.16952   0.18342   0.22634   0.22991
 Alpha virt. eigenvalues --    0.23693   0.24263   0.24635   0.25469   0.25688
 Alpha virt. eigenvalues --    0.27170   0.27261   0.27602   0.28942   0.32326
 Alpha virt. eigenvalues --    0.33384   0.36427   0.38173   0.38261   0.39536
 Alpha virt. eigenvalues --    0.40349   0.41207   0.43101   0.43428   0.45312
 Alpha virt. eigenvalues --    0.48040   0.54635   0.57008   0.59030   0.59869
 Alpha virt. eigenvalues --    0.60506   0.61102   0.62323   0.63477   0.63960
 Alpha virt. eigenvalues --    0.64780   0.65759   0.66144   0.67310   0.67928
 Alpha virt. eigenvalues --    0.68282   0.68453   0.68699   0.68855   0.69789
 Alpha virt. eigenvalues --    0.70158   0.70359   0.70378   0.70623   0.71100
 Alpha virt. eigenvalues --    0.73578   0.75264   0.75326   0.75784   0.76078
 Alpha virt. eigenvalues --    0.78869   0.83672   0.85312   0.86839   0.88584
 Alpha virt. eigenvalues --    0.90509   0.92328   0.92729   0.92834   0.93486
 Alpha virt. eigenvalues --    0.93731   0.94334   0.95083   0.96128   0.97935
 Alpha virt. eigenvalues --    0.99034   1.00088   1.01425   1.02281   1.03031
 Alpha virt. eigenvalues --    1.04149   1.04894   1.05981   1.07513   1.08651
 Alpha virt. eigenvalues --    1.10985   1.12649   1.14309   1.17465   1.17857
 Alpha virt. eigenvalues --    1.20969   1.21482   1.24593   1.25217   1.26572
 Alpha virt. eigenvalues --    1.27284   1.28952   1.30726   1.33325   1.34816
 Alpha virt. eigenvalues --    1.38164   1.40933   1.42538   1.47666   1.48769
 Alpha virt. eigenvalues --    1.50843   1.51000   1.52009   1.52980   1.53915
 Alpha virt. eigenvalues --    1.55802   1.56931   1.57204   1.57387   1.58868
 Alpha virt. eigenvalues --    1.59401   1.59491   1.63010   1.65733   1.68549
 Alpha virt. eigenvalues --    1.75664   1.80744   1.83259   1.88064   1.88537
 Alpha virt. eigenvalues --    1.89601   1.91623   1.93480   1.93682   1.95775
 Alpha virt. eigenvalues --    1.97574   1.98314   1.99238   2.00566   2.03791
 Alpha virt. eigenvalues --    2.04746   2.05876   2.06283   2.06905   2.08443
 Alpha virt. eigenvalues --    2.11976   2.14147   2.16437   2.17322   2.19112
 Alpha virt. eigenvalues --    2.21146   2.22916   2.23922   2.24169   2.24355
 Alpha virt. eigenvalues --    2.25760   2.31382   2.31586   2.33400   2.37745
 Alpha virt. eigenvalues --    2.38878   2.39562   2.39781   2.43473   2.46261
 Alpha virt. eigenvalues --    2.46528   2.52954   2.55315   2.58588   2.62050
 Alpha virt. eigenvalues --    2.66035   2.68104   2.70002   2.72209   2.73095
 Alpha virt. eigenvalues --    2.74691   2.78121   2.79204   2.81456   2.82114
 Alpha virt. eigenvalues --    2.82538   2.83163   2.83474   2.85433   2.90442
 Alpha virt. eigenvalues --    2.92119   2.95578   3.02130   3.08288   3.11090
 Alpha virt. eigenvalues --    3.17399   3.34292   3.42008   3.51713   3.54624
 Alpha virt. eigenvalues --    4.16996   4.18494   4.19547   4.19800   4.21897
 Alpha virt. eigenvalues --    4.24094   4.25492   4.28788   4.40115   4.43207
 Alpha virt. eigenvalues --    4.44011   4.46633   4.57919   4.62179   4.82200
 Alpha virt. eigenvalues --    4.85887
          Condensed to atoms (all electrons):
               1          2          3          4          5          6
     1  C    4.891087   0.515279  -0.018097  -0.041307  -0.029818   0.554042
     2  C    0.515279   4.985445   0.580040  -0.059701  -0.039571  -0.043704
     3  C   -0.018097   0.580040   4.483953   0.532581  -0.016655  -0.032840
     4  C   -0.041307  -0.059701   0.532581   5.019020   0.550685  -0.047432
     5  C   -0.029818  -0.039571  -0.016655   0.550685   4.837383   0.559020
     6  C    0.554042  -0.043704  -0.032840  -0.047432   0.559020   4.873872
     7  H    0.369319  -0.034768   0.002619   0.000763   0.003876  -0.037805
     8  H   -0.035078   0.352991  -0.026947   0.004742   0.000071   0.003516
     9  H    0.000237   0.004670  -0.045960   0.360723  -0.031084   0.003935
    10  H    0.003815   0.000624   0.002937  -0.036010   0.368397  -0.036117
    11  H   -0.037453   0.003680   0.000484   0.004173  -0.038069   0.370767
    12  N    0.004794  -0.060529   0.235312  -0.058070   0.004533   0.000329
    13  C    0.000361  -0.002673  -0.025668   0.004672  -0.000091  -0.000000
    14  H   -0.000037   0.003852  -0.023636  -0.004103   0.000107  -0.000008
    15  O    0.000674  -0.007061  -0.002853   0.000210  -0.000002  -0.000003
    16  O    0.000001   0.000158   0.002115  -0.000171   0.000000   0.000000
    17  C   -0.000000   0.000009   0.000005   0.000001  -0.000000   0.000000
    18  C    0.000000  -0.000000   0.000001  -0.000000  -0.000000   0.000000
    19  C    0.000000  -0.000000   0.000008  -0.000000  -0.000000   0.000000
    20  C   -0.000000  -0.000000  -0.000000   0.000000  -0.000000  -0.000000
    21  H    0.000000   0.000000   0.000000  -0.000000  -0.000000  -0.000000
    22  C    0.000000   0.000000  -0.000000   0.000000   0.000000  -0.000000
    23  H   -0.000000   0.000001   0.000009  -0.000000  -0.000000   0.000000
    24  C   -0.000000   0.000000   0.000000  -0.000000   0.000000   0.000000
    25  H    0.000000  -0.000000   0.000000  -0.000000   0.000000   0.000000
    26  H    0.000000   0.000000   0.000000  -0.000000  -0.000000   0.000000
    27  H   -0.000000   0.000000  -0.000000   0.000000   0.000000  -0.000000
               7          8          9         10         11         12
     1  C    0.369319  -0.035078   0.000237   0.003815  -0.037453   0.004794
     2  C   -0.034768   0.352991   0.004670   0.000624   0.003680  -0.060529
     3  C    0.002619  -0.026947  -0.045960   0.002937   0.000484   0.235312
     4  C    0.000763   0.004742   0.360723  -0.036010   0.004173  -0.058070
     5  C    0.003876   0.000071  -0.031084   0.368397  -0.038069   0.004533
     6  C   -0.037805   0.003516   0.003935  -0.036117   0.370767   0.000329
     7  H    0.532029  -0.003822   0.000013  -0.000151  -0.004019  -0.000100
     8  H   -0.003822   0.471485  -0.000114   0.000010  -0.000108  -0.009321
     9  H    0.000013  -0.000114   0.553141  -0.004534  -0.000141  -0.006843
    10  H   -0.000151   0.000010  -0.004534   0.535689  -0.003958  -0.000098
    11  H   -0.004019  -0.000108  -0.000141  -0.003958   0.538098   0.000003
    12  N   -0.000100  -0.009321  -0.006843  -0.000098   0.000003   7.241752
    13  C   -0.000001   0.002529   0.000093   0.000001  -0.000000   0.305863
    14  H    0.000002  -0.000159   0.006069  -0.000013  -0.000000   0.306094
    15  O   -0.000002   0.019341   0.000001  -0.000000   0.000000  -0.082066
    16  O   -0.000000   0.000151  -0.000013  -0.000000   0.000000  -0.105094
    17  C    0.000000   0.000001   0.000000   0.000000  -0.000000   0.002412
    18  C    0.000000  -0.000000  -0.000000  -0.000000   0.000000  -0.000271
    19  C    0.000000   0.000000  -0.000000   0.000000  -0.000000   0.000154
    20  C    0.000000  -0.000000  -0.000000   0.000000  -0.000000   0.000002
    21  H    0.000000  -0.000000  -0.000000  -0.000000   0.000000  -0.000044
    22  C    0.000000   0.000000   0.000000   0.000000  -0.000000  -0.000003
    23  H   -0.000000   0.000003  -0.000000  -0.000000   0.000000  -0.000239
    24  C   -0.000000   0.000000   0.000000  -0.000000  -0.000000   0.000000
    25  H   -0.000000   0.000000  -0.000000  -0.000000   0.000000  -0.000000
    26  H   -0.000000  -0.000000  -0.000000  -0.000000   0.000000  -0.000000
    27  H    0.000000  -0.000000   0.000000   0.000000  -0.000000   0.000000
              13         14         15         16         17         18
     1  C    0.000361  -0.000037   0.000674   0.000001  -0.000000   0.000000
     2  C   -0.002673   0.003852  -0.007061   0.000158   0.000009  -0.000000
     3  C   -0.025668  -0.023636  -0.002853   0.002115   0.000005   0.000001
     4  C    0.004672  -0.004103   0.000210  -0.000171   0.000001  -0.000000
     5  C   -0.000091   0.000107  -0.000002   0.000000  -0.000000  -0.000000
     6  C   -0.000000  -0.000008  -0.000003   0.000000   0.000000   0.000000
     7  H   -0.000001   0.000002  -0.000002  -0.000000   0.000000   0.000000
     8  H    0.002529  -0.000159   0.019341   0.000151   0.000001  -0.000000
     9  H    0.000093   0.006069   0.000001  -0.000013   0.000000  -0.000000
    10  H    0.000001  -0.000013  -0.000000  -0.000000   0.000000  -0.000000
    11  H   -0.000000  -0.000000   0.000000   0.000000  -0.000000   0.000000
    12  N    0.305863   0.306094  -0.082066  -0.105094   0.002412  -0.000271
    13  C    4.067297  -0.020168   0.577870   0.276928  -0.014592  -0.000924
    14  H   -0.020168   0.350419   0.002524   0.009439   0.000004  -0.000003
    15  O    0.577870   0.002524   8.051505  -0.073569   0.001251  -0.000208
    16  O    0.276928   0.009439  -0.073569   8.358656   0.196822  -0.048166
    17  C   -0.014592   0.000004   0.001251   0.196822   4.479358   0.569984
    18  C   -0.000924  -0.000003  -0.000208  -0.048166   0.569984   4.963176
    19  C   -0.001815   0.000019   0.002766  -0.045436   0.547244  -0.068375
    20  C    0.000008   0.000000   0.000001   0.003499  -0.022463   0.527500
    21  H    0.000146   0.000031   0.000016  -0.000809  -0.035904   0.361212
    22  C    0.000116  -0.000000  -0.000225   0.003853  -0.015520  -0.036791
    23  H    0.002239  -0.000002   0.003210  -0.005486  -0.031050   0.004807
    24  C    0.000034   0.000000   0.000006   0.000129  -0.034153  -0.044943
    25  H   -0.000001  -0.000000   0.000000  -0.000056   0.002896  -0.033773
    26  H   -0.000012   0.000000  -0.000004  -0.000049   0.002506   0.000648
    27  H   -0.000000  -0.000000   0.000000   0.000001   0.000561   0.003725
              19         20         21         22         23         24
     1  C    0.000000  -0.000000   0.000000   0.000000  -0.000000  -0.000000
     2  C   -0.000000  -0.000000   0.000000   0.000000   0.000001   0.000000
     3  C    0.000008  -0.000000   0.000000  -0.000000   0.000009   0.000000
     4  C   -0.000000   0.000000  -0.000000   0.000000  -0.000000  -0.000000
     5  C   -0.000000  -0.000000  -0.000000   0.000000  -0.000000   0.000000
     6  C    0.000000  -0.000000  -0.000000  -0.000000   0.000000   0.000000
     7  H    0.000000   0.000000   0.000000   0.000000  -0.000000  -0.000000
     8  H    0.000000  -0.000000  -0.000000   0.000000   0.000003   0.000000
     9  H   -0.000000  -0.000000  -0.000000   0.000000  -0.000000   0.000000
    10  H    0.000000   0.000000  -0.000000   0.000000  -0.000000  -0.000000
    11  H   -0.000000  -0.000000   0.000000  -0.000000   0.000000  -0.000000
    12  N    0.000154   0.000002  -0.000044  -0.000003  -0.000239   0.000000
    13  C   -0.001815   0.000008   0.000146   0.000116   0.002239   0.000034
    14  H    0.000019   0.000000   0.000031  -0.000000  -0.000002   0.000000
    15  O    0.002766   0.000001   0.000016  -0.000225   0.003210   0.000006
    16  O   -0.045436   0.003499  -0.000809   0.003853  -0.005486   0.000129
    17  C    0.547244  -0.022463  -0.035904  -0.015520  -0.031050  -0.034153
    18  C   -0.068375   0.527500   0.361212  -0.036791   0.004807  -0.044943
    19  C    4.957396  -0.035147   0.005344   0.519970   0.361656  -0.044040
    20  C   -0.035147   4.878105  -0.035444  -0.032700   0.000151   0.558491
    21  H    0.005344  -0.035444   0.527747   0.000032  -0.000118   0.003943
    22  C    0.519970  -0.032700   0.000032   4.886577  -0.034354   0.554679
    23  H    0.361656   0.000151  -0.000118  -0.034354   0.508932   0.003654
    24  C   -0.044040   0.558491   0.003943   0.554679   0.003654   4.866109
    25  H    0.000450   0.368356  -0.004365   0.003851   0.000011  -0.036762
    26  H   -0.032941   0.003695   0.000012   0.368162  -0.003956  -0.036604
    27  H    0.003847  -0.037472  -0.000124  -0.037216  -0.000122   0.370825
              25         26         27
     1  C    0.000000   0.000000  -0.000000
     2  C   -0.000000   0.000000   0.000000
     3  C    0.000000   0.000000  -0.000000
     4  C   -0.000000  -0.000000   0.000000
     5  C    0.000000  -0.000000   0.000000
     6  C    0.000000   0.000000  -0.000000
     7  H   -0.000000  -0.000000   0.000000
     8  H    0.000000  -0.000000  -0.000000
     9  H   -0.000000  -0.000000   0.000000
    10  H   -0.000000  -0.000000   0.000000
    11  H    0.000000   0.000000  -0.000000
    12  N   -0.000000  -0.000000   0.000000
    13  C   -0.000001  -0.000012  -0.000000
    14  H   -0.000000   0.000000  -0.000000
    15  O    0.000000  -0.000004   0.000000
    16  O   -0.000056  -0.000049   0.000001
    17  C    0.002896   0.002506   0.000561
    18  C   -0.033773   0.000648   0.003725
    19  C    0.000450  -0.032941   0.003847
    20  C    0.368356   0.003695  -0.037472
    21  H   -0.004365   0.000012  -0.000124
    22  C    0.003851   0.368162  -0.037216
    23  H    0.000011  -0.003956  -0.000122
    24  C   -0.036762  -0.036604   0.370825
    25  H    0.530505  -0.000150  -0.003961
    26  H   -0.000150   0.527947  -0.003943
    27  H   -0.003961  -0.003943   0.534001
 Mulliken charges:
               1
     1  C   -0.177817
     2  C   -0.198743
     3  C    0.352592
     4  C   -0.230777
     5  C   -0.168784
     6  C   -0.167574
     7  H    0.172046
     8  H    0.220709
     9  H    0.159807
    10  H    0.169408
    11  H    0.166542
    12  N   -0.778570
    13  C    0.827787
    14  H    0.369569
    15  O   -0.493382
    16  O   -0.572903
    17  C    0.350625
    18  C   -0.197600
    19  C   -0.171099
    20  C   -0.176582
    21  H    0.178325
    22  C   -0.180430
    23  H    0.190654
    24  C   -0.161368
    25  H    0.173000
    26  H    0.174688
    27  H    0.169877
 Sum of Mulliken charges =  -0.00000
 Mulliken charges with hydrogens summed into heavy atoms:
               1
     1  C   -0.005771
     2  C    0.021966
     3  C    0.352592
     4  C   -0.070970
     5  C    0.000625
     6  C   -0.001031
    12  N   -0.409001
    13  C    0.827787
    15  O   -0.493382
    16  O   -0.572903
    17  C    0.350625
    18  C   -0.019275
    19  C    0.019555
    20  C   -0.003583
    22  C   -0.005742
    24  C    0.008508
 Electronic spatial extent (au):  <R**2>=           9900.9450
 Charge=             -0.0000 electrons
 Dipole moment (field-independent basis, Debye):
    X=              0.4434    Y=              2.0052    Z=              0.2784  Tot=              2.0724
 Quadrupole moment (field-independent basis, Debye-Ang):
   XX=            -75.3358   YY=            -88.1996   ZZ=            -88.3731
   XY=              0.5293   XZ=              5.4565   YZ=              3.6895
 Traceless Quadrupole moment (field-independent basis, Debye-Ang):
   XX=              8.6337   YY=             -4.2301   ZZ=             -4.4036
   XY=              0.5293   XZ=              5.4565   YZ=              3.6895
 Octapole moment (field-independent basis, Debye-Ang**2):
  XXX=           -759.3558  YYY=            194.3427  ZZZ=           -118.2549  XYY=           -293.1199
  XXY=              9.3433  XXZ=             -9.0826  XZZ=           -260.6930  YZZ=             58.7118
  YYZ=            -54.4118  XYZ=              8.9345
 Hexadecapole moment (field-independent basis, Debye-Ang**3):
 XXXX=         -10386.0194 YYYY=          -1052.7443 ZZZZ=           -697.4819 XXXY=            612.6072
 XXXZ=           -717.7565 YYYX=           1266.2614 YYYZ=            207.7907 ZZZX=          -1007.2634
 ZZZY=            177.0982 XXYY=          -1975.1590 XXZZ=          -1806.6494 YYZZ=           -311.4842
 XXYZ=             60.8767 YYXZ=           -408.6585 ZZXY=            405.5461
 N-N= 9.726709911872D+02 E-N=-3.589771319814D+03  KE= 7.005404669209D+02
 No NMR shielding tensors so no spin-rotation constants.
 Leave Link  601 at Tue May 28 16:50:25 2024, MaxMem=   536870912 cpu:               1.0 elap:               0.3
 (Enter /software/gaussian/g16-c01/avx2/g16/l9999.exe)
 Unable to Open any file for archive entry.
 1\1\GINC-BHD0001\FOpt\RwB97XD\6-31G(d)\C13H11N1O2\BWEIGHT\28-May-2024\
 0\\#P OPT wB97XD/6-31G* NoSymm\\PHI Geometry (Unoptimized)\\0,1\C,-0.8
 824071814,-1.1012562626,-0.6128854098\C,0.4608885396,-1.0584471235,-0.
 2519523455\C,1.0498284696,0.1744578359,0.0406333509\C,0.2839720753,1.3
 425709669,-0.0320751812\C,-1.0551300313,1.2817433749,-0.3932399631\C,-
 1.648518623,0.0573189194,-0.68693032\H,-1.3319479328,-2.063793474,-0.8
 385047256\H,1.0502547595,-1.9632122617,-0.1957042674\H,0.7403257733,2.
 3034559387,0.1949936807\H,-1.634718645,2.1985565841,-0.4446403731\H,-2
 .6952008396,0.0080079021,-0.969642209\N,2.39963355,0.3158203796,0.4145
 258491\C,3.3455491288,-0.6599907441,0.5347398985\H,2.720923947,1.25075
 38857,0.6173258228\O,3.2094529754,-1.8445662614,0.3485349552\O,4.51024
 50291,-0.0542233274,0.9161741173\C,5.6446754267,-0.8321470605,1.103164
 5187\C,6.316580013,-0.6741512413,2.3075571305\C,6.1335765451,-1.666133
 9306,0.1043419822\C,7.5048635436,-1.3670350468,2.5186570193\H,5.905221
 3724,-0.0115331341,3.0617068142\C,7.3177695092,-2.359266909,0.33157569
 67\H,5.5901278633,-1.778665411,-0.8258910643\C,8.0063475608,-2.2124976
 543,1.5334688598\H,8.035868137,-1.2458107671,3.4578152722\H,7.70448677
 04,-3.0177444656,-0.4401321449\H,8.931286374,-2.7555272723,1.700586115
 6\\Version=ES64L-G16RevC.01\HF=-706.9931515\RMSD=7.186e-09\RMSF=2.785e
 -05\Dipole=0.1744324,0.7889107,0.1095293\Quadrupole=6.4189613,-3.14498
 53,-3.273976,0.3935098,4.0567473,2.7430679\PG=C01 [X(C13H11N1O2)]\\@
 The archive entry for this job was punched.


 NO MATTER HOW THIN YOU SLICE IT, IT'S STILL BALONEY

                                   -- ALFRED E. SMITH
 Job cpu time:       0 days  1 hours 25 minutes 12.9 seconds.
 Elapsed time:       0 days  0 hours 21 minutes 30.1 seconds.
 File lengths (MBytes):  RWF=     49 Int=      0 D2E=      0 Chk=     32 Scr=      1
 Normal termination of Gaussian 16 at Tue May 28 16:50:25 2024.
