27
Scan Step 0
C -4.501655 -0.628514 -0.597833
C -3.174366 -1.036961 -0.636528
C -2.15757 -0.081455 -0.705453
C -2.473333 1.275223 -0.737299
C -3.805619 1.673301 -0.696928
C -4.823249 0.726139 -0.627752
H -5.287788 -1.375917 -0.54472
H -2.924634 -2.095259 -0.615823
H -1.673274 2.007031 -0.79345
H -4.046776 2.73169 -0.720938
H -5.861444 1.041065 -0.597886
N -0.797276 -0.450937 -0.750894
C -0.246216 -1.528767 -0.615939
H 1.151702 0.653869 -1.247858
O 0.383649 -2.504254 -0.505223
O 2.10523 0.490759 -1.286375
C 2.600328 0.457004 -0.01934
C 1.831027 0.794917 1.095773
C 3.931069 0.068175 0.143811
C 2.393478 0.731137 2.367551
H 0.795767 1.101024 0.968665
C 4.480111 0.012136 1.418576
H 4.512161 -0.19136 -0.735706
C 3.716994 0.339442 2.538653
H 1.786047 0.992493 3.229604
H 5.514507 -0.294388 1.53771
H 4.151386 0.290565 3.532766
27
Scan Step 1
C -4.501655 -0.628514 -0.597833
C -3.174366 -1.036961 -0.636528
C -2.15757 -0.081455 -0.705453
C -2.473333 1.275223 -0.737299
C -3.805619 1.673301 -0.696928
C -4.823249 0.726139 -0.627752
H -5.287788 -1.375917 -0.54472
H -2.924634 -2.095259 -0.615823
H -1.673274 2.007031 -0.79345
H -4.046776 2.73169 -0.720938
H -5.861444 1.041065 -0.597886
N -0.797276 -0.450937 -0.750894
C -0.246216 -1.528767 -0.615939
H 1.151702 0.653869 -1.247858
O 0.383649 -2.504254 -0.505223
O 2.10523 0.490759 -1.286375
C 2.600328 0.457004 -0.01934
C 1.831027 0.794917 1.095773
C 3.931069 0.068175 0.143811
C 2.393478 0.731137 2.367551
H 0.795767 1.101024 0.968665
C 4.480111 0.012136 1.418576
H 4.512161 -0.19136 -0.735706
C 3.716994 0.339442 2.538653
H 1.786047 0.992493 3.229604
H 5.514507 -0.294388 1.53771
H 4.151386 0.290565 3.532766
27
Scan Step 2
C -4.501949 -0.628907 -0.598149
C -3.174602 -1.03706 -0.636281
C -2.157962 -0.081403 -0.704961
C -2.474092 1.275172 -0.737019
C -3.806435 1.672971 -0.697216
C -4.823866 0.72562 -0.628357
H -5.288398 -1.376926 -0.545216
H -2.924491 -2.096006 -0.615329
H -1.673782 2.007515 -0.792972
H -4.047894 2.731715 -0.721438
H -5.862471 1.040408 -0.598937
N -0.79755 -0.450488 -0.749984
C -0.24597 -1.528163 -0.616045
H 1.15216 0.654781 -1.24776
O 0.384353 -2.503472 -0.506214
O 2.105528 0.490746 -1.286286
C 2.600692 0.456932 -0.019263
C 1.831812 0.796263 1.095697
C 3.930944 0.066584 0.144059
C 2.394224 0.732467 2.367479
H 0.796903 1.10341 0.968402
C 4.479989 0.010537 1.418827
H 4.511995 -0.194246 -0.735771
C 3.717279 0.339359 2.538704
H 1.787004 0.995087 3.229586
H 5.51378 -0.297122 1.538033
H 4.151857 0.290479 3.533277
27
Scan Step 3
C -4.502334 -0.629415 -0.598543
C -3.174889 -1.037222 -0.63597
C -2.15845 -0.08134 -0.704345
C -2.475025 1.27512 -0.736672
C -3.807459 1.672571 -0.69758
C -4.824647 0.724973 -0.629118
H -5.288975 -1.378009 -0.545849
H -2.924411 -2.096526 -0.614714
H -1.674588 2.007961 -0.792363
H -4.049253 2.731587 -0.722066
H -5.863657 1.039557 -0.60026
N -0.797896 -0.449928 -0.74884
C -0.245657 -1.527406 -0.616183
H 1.152681 0.655983 -1.247621
O 0.385246 -2.502485 -0.507463
O 2.105888 0.490728 -1.286166
C 2.601142 0.456842 -0.019163
C 1.832803 0.797953 1.095606
C 3.930792 0.064574 0.144352
C 2.395161 0.734143 2.367398
H 0.798301 1.106443 0.968069
C 4.479811 0.008533 1.419135
H 4.511628 -0.197808 -0.735622
C 3.717652 0.339257 2.538788
H 1.788272 0.998327 3.229488
H 5.513111 -0.300635 1.538472
H 4.152334 0.290382 3.533653
27
Scan Step 4
C -4.502613 -0.629772 -0.598804
C -3.175071 -1.03737 -0.635762
C -2.158772 -0.081301 -0.703936
C -2.475624 1.275101 -0.736444
C -3.808141 1.672324 -0.697825
C -4.825178 0.724548 -0.629627
H -5.289123 -1.378504 -0.546286
H -2.924463 -2.096435 -0.614312
H -1.675329 2.008064 -0.791945
H -4.050107 2.731297 -0.722484
H -5.864297 1.038948 -0.601147
N -0.798129 -0.449558 -0.748076
C -0.245445 -1.526903 -0.616279
H 1.153 0.656828 -1.247517
O 0.385848 -2.501825 -0.5083
O 2.106116 0.490713 -1.28608
C 2.601437 0.456782 -0.019094
C 1.833468 0.799078 1.09555
C 3.930697 0.063223 0.144525
C 2.395784 0.735266 2.367353
H 0.79921 1.108493 0.967848
C 4.479672 0.0072 1.419333
H 4.511207 -0.20011 -0.735267
C 3.717916 0.339192 2.538867
H 1.789193 1.000461 3.22933
H 5.512874 -0.303044 1.538793
H 4.152531 0.290332 3.533622
27
Scan Step 5
C -4.502927 -0.630168 -0.599082
C -3.175259 -1.037554 -0.635538
C -2.159114 -0.081261 -0.703498
C -2.476249 1.27509 -0.736202
C -3.808871 1.672072 -0.69809
C -4.825754 0.724098 -0.630171
H -5.289111 -1.378871 -0.546763
H -2.924588 -2.096051 -0.613886
H -1.676267 2.008037 -0.791489
H -4.050983 2.730841 -0.72293
H -5.864867 1.038266 -0.6021
N -0.79838 -0.449164 -0.747258
C -0.245217 -1.526365 -0.616384
H 1.153334 0.657761 -1.247395
O 0.386498 -2.501116 -0.509197
O 2.106351 0.490696 -1.285982
C 2.601748 0.456718 -0.019018
C 1.834182 0.800282 1.095493
C 3.9306 0.061769 0.144695
C 2.396448 0.736473 2.367312
H 0.800174 1.110706 0.967613
C 4.479511 0.005775 1.41954
H 4.510638 -0.202524 -0.734713
C 3.718209 0.339124 2.538966
H 1.790233 1.002726 3.229096
H 5.512739 -0.305661 1.539154
H 4.152661 0.290288 3.533403
27
Scan Step 6
C -4.503348 -0.630694 -0.599438
C -3.175494 -1.037818 -0.63525
C -2.159551 -0.081212 -0.702935
C -2.477036 1.275089 -0.735894
C -3.809811 1.671765 -0.698433
C -4.826507 0.723524 -0.630872
H -5.2889 -1.379153 -0.547389
H -2.92482 -2.095263 -0.613341
H -1.677636 2.007848 -0.790892
H -4.052066 2.730081 -0.723503
H -5.865461 1.037347 -0.603333
N -0.798705 -0.448661 -0.746203
C -0.244922 -1.525674 -0.616524
H 1.153776 0.659001 -1.247224
O 0.387341 -2.500198 -0.510357
O 2.106638 0.490672 -1.285849
C 2.602143 0.456634 -0.018919
C 1.835104 0.801834 1.095425
C 3.930477 0.059887 0.144898
C 2.397304 0.738034 2.367267
H 0.801415 1.113579 0.967316
C 4.479293 0.00394 1.4198
H 4.509774 -0.205582 -0.733812
C 3.718597 0.33904 2.53911
H 1.791636 1.005621 3.22872
H 5.512657 -0.309064 1.539635
H 4.152748 0.29024 3.532929
27
Scan Step 7
C -4.503952 -0.631443 -0.599934
C -3.175817 -1.038202 -0.634845
C -2.160161 -0.081147 -0.702149
C -2.478115 1.275095 -0.735468
C -3.811119 1.671349 -0.698918
C -4.827567 0.722729 -0.631855
H -5.288421 -1.379369 -0.548275
H -2.925188 -2.09399 -0.61258
H -1.67969 2.007446 -0.790052
H -4.053534 2.728853 -0.724307
H -5.866129 1.036023 -0.605064
N -0.799163 -0.447964 -0.744726
C -0.244504 -1.524709 -0.616726
H 1.154455 0.660791 -1.24696
O 0.388532 -2.498908 -0.511985
O 2.107011 0.490635 -1.28565
C 2.602686 0.456517 -0.018776
C 1.836393 0.804004 1.095337
C 3.930298 0.057244 0.14517
C 2.398506 0.740227 2.367213
H 0.80318 1.117625 0.966918
C 4.478986 0.001367 1.420155
H 4.508462 -0.209825 -0.732416
C 3.71915 0.338927 2.53932
H 1.793664 1.00965 3.228132
H 5.512495 -0.313816 1.54031
H 4.152825 0.290179 3.532151
27
Scan Step 8
C -4.504348 -0.631941 -0.600271
C -3.176046 -1.03843 -0.63457
C -2.160576 -0.081106 -0.701616
C -2.478853 1.275086 -0.735182
C -3.811997 1.671058 -0.699251
C -4.828278 0.722189 -0.632524
H -5.288222 -1.37963 -0.548865
H -2.925348 -2.093518 -0.612052
H -1.680952 2.007286 -0.789495
H -4.054546 2.728121 -0.724862
H -5.866616 1.03514 -0.60624
N -0.799475 -0.447498 -0.743721
C -0.244219 -1.524055 -0.61687
H 1.154994 0.662058 -1.246754
O 0.389354 -2.498024 -0.513098
O 2.107238 0.490607 -1.285504
C 2.603046 0.456435 -0.018675
C 1.837266 0.805483 1.095285
C 3.93015 0.055446 0.14537
C 2.399336 0.741722 2.367174
H 0.804445 1.120386 0.966672
C 4.478798 -0.000394 1.420389
H 4.507685 -0.212776 -0.731658
C 3.71952 0.338857 2.53944
H 1.795018 1.012404 3.227793
H 5.512075 -0.316956 1.540738
H 4.152993 0.290127 3.531865
27
Scan Step 9
C -4.504705 -0.632396 -0.600591
C -3.17627 -1.038611 -0.63431
C -2.160971 -0.081069 -0.701112
C -2.479563 1.275062 -0.734912
C -3.81282 1.670767 -0.699569
C -4.828938 0.721675 -0.63316
H -5.288216 -1.380047 -0.549411
H -2.925406 -2.093471 -0.611542
H -1.681977 2.007286 -0.78898
H -4.055534 2.727583 -0.725395
H -5.86717 1.034338 -0.607353
N -0.799772 -0.44706 -0.742767
C -0.243947 -1.523436 -0.61701
H 1.155532 0.663293 -1.246541
O 0.39014 -2.497182 -0.514157
O 2.107436 0.490577 -1.285358
C 2.603383 0.456357 -0.018576
C 1.838091 0.806885 1.09524
C 3.929987 0.053743 0.145577
C 2.400134 0.743143 2.367132
H 0.805687 1.123006 0.966455
C 4.478637 -0.002071 1.420607
H 4.507082 -0.215643 -0.731158
C 3.719863 0.338796 2.539531
H 1.796257 1.015035 3.22755
H 5.511436 -0.319862 1.541116
H 4.15327 0.290066 3.531847
27
Scan Step 10
C -4.504981 -0.632757 -0.600856
C -3.176463 -1.03873 -0.634096
C -2.161299 -0.08104 -0.700696
C -2.480161 1.275028 -0.73469
C -3.813493 1.670511 -0.699834
C -4.82947 0.721247 -0.633686
H -5.288394 -1.380565 -0.54985
H -2.925372 -2.093779 -0.611112
H -1.68266 2.007433 -0.788568
H -4.056383 2.727295 -0.725842
H -5.867736 1.033711 -0.608272
N -0.800017 -0.446702 -0.741977
C -0.243721 -1.522925 -0.61713
H 1.155975 0.664344 -1.24635
O 0.390795 -2.496481 -0.515035
O 2.107588 0.490551 -1.285232
C 2.603658 0.456291 -0.018492
C 1.838771 0.808047 1.095207
C 3.929833 0.052336 0.145765
C 2.400805 0.744319 2.367093
H 0.806743 1.125176 0.96629
C 4.478515 -0.003465 1.420785
H 4.506706 -0.218078 -0.730944
C 3.72014 0.338749 2.539586
H 1.797239 1.017233 3.227427
H 5.510729 -0.322212 1.541408
H 4.153602 0.290006 3.532051
27
Scan Step 11
C -4.505277 -0.633151 -0.601158
C -3.176689 -1.038839 -0.633853
C -2.161673 -0.081007 -0.700224
C -2.48085 1.274976 -0.734439
C -3.814249 1.670208 -0.700135
C -4.83006 0.72076 -0.634284
H -5.288765 -1.381311 -0.550335
H -2.925265 -2.094417 -0.610616
H -1.683284 2.007733 -0.788113
H -4.057376 2.727115 -0.726356
H -5.868486 1.033036 -0.609312
N -0.800296 -0.446299 -0.74108
C -0.243464 -1.522345 -0.617268
H 1.156457 0.665569 -1.24612
O 0.391545 -2.495682 -0.516035
O 2.107752 0.490518 -1.285083
C 2.603965 0.456215 -0.018394
C 1.839543 0.809367 1.095173
C 3.929642 0.050741 0.145993
C 2.401576 0.745656 2.367044
H 0.80796 1.127643 0.966114
C 4.478383 -0.005051 1.420985
H 4.506382 -0.220899 -0.730874
C 3.720449 0.338698 2.539631
H 1.798313 1.019747 3.227357
H 5.509801 -0.324843 1.541722
H 4.154064 0.28993 3.532466
27
Scan Step 12
C -4.505471 -0.633414 -0.601367
C -3.176848 -1.038902 -0.633685
C -2.161931 -0.080986 -0.699899
C -2.481331 1.274932 -0.734266
C -3.814766 1.669989 -0.700345
C -4.830458 0.720421 -0.634698
H -5.289126 -1.381927 -0.550662
H -2.925156 -2.095008 -0.61027
H -1.683624 2.00802 -0.787806
H -4.05808 2.727083 -0.726716
H -5.869077 1.032594 -0.610029
N -0.800488 -0.446024 -0.74046
C -0.243287 -1.521945 -0.617366
H 1.15676 0.666441 -1.245949
O 0.392066 -2.495128 -0.516728
O 2.107859 0.490494 -1.284977
C 2.604174 0.456162 -0.018325
C 1.840076 0.81028 1.095153
C 3.929498 0.04964 0.146157
C 2.402116 0.746581 2.367008
H 0.808805 1.12935 0.966002
C 4.478294 -0.006149 1.421121
H 4.506213 -0.222879 -0.730925
C 3.720659 0.338665 2.539653
H 1.799031 1.021494 3.227352
H 5.509115 -0.326647 1.541931
H 4.154431 0.289875 3.532848
27
Scan Step 13
C -4.505679 -0.633699 -0.601597
C -3.177024 -1.038966 -0.633501
C -2.162217 -0.080962 -0.699541
C -2.481863 1.27488 -0.734077
C -3.815332 1.669744 -0.700577
C -4.83089 0.720047 -0.635155
H -5.289579 -1.382656 -0.551018
H -2.925021 -2.095717 -0.609886
H -1.683952 2.008376 -0.787472
H -4.058863 2.727097 -0.727114
H -5.869769 1.032123 -0.610818
N -0.800701 -0.445722 -0.739776
C -0.243091 -1.521504 -0.617475
H 1.157067 0.667422 -1.245752
O 0.392645 -2.494514 -0.517493
O 2.107972 0.490465 -1.284856
C 2.604402 0.456103 -0.018247
C 1.840663 0.811287 1.095132
C 3.929334 0.048425 0.146342
C 2.402715 0.747603 2.366968
H 0.809734 1.131237 0.965885
C 4.478193 -0.00736 1.421269
H 4.506047 -0.225077 -0.731024
C 3.720891 0.33863 2.539674
H 1.799813 1.023425 3.227371
H 5.508357 -0.328637 1.542159
H 4.154855 0.289813 3.533306
27
Scan Step 14
C -4.505961 -0.634087 -0.601913
C -3.177265 -1.039056 -0.633247
C -2.162608 -0.080931 -0.699049
C -2.482594 1.274805 -0.733818
C -3.816105 1.669404 -0.700897
C -4.831478 0.719533 -0.635783
H -5.29023 -1.383685 -0.551505
H -2.92484 -2.096674 -0.609359
H -1.68438 2.00888 -0.787017
H -4.059943 2.727143 -0.727666
H -5.870753 1.031486 -0.611903
N -0.800993 -0.44531 -0.738836
C -0.242822 -1.520899 -0.617628
H 1.157451 0.668801 -1.245469
O 0.393445 -2.493666 -0.518548
O 2.10812 0.490423 -1.284686
C 2.604711 0.45602 -0.018138
C 1.841473 0.812672 1.095107
C 3.929101 0.046752 0.146596
C 2.403544 0.749012 2.366913
H 0.810999 1.133838 0.965733
C 4.478047 -0.009025 1.42147
H 4.505809 -0.228103 -0.73117
C 3.721212 0.338583 2.539701
H 1.800889 1.026081 3.227409
H 5.50737 -0.331391 1.542472
H 4.155441 0.28973 3.533922
27
Scan Step 15
C -4.5064 -0.63469 -0.602396
C -3.177626 -1.039224 -0.632857
C -2.163203 -0.080885 -0.698299
C -2.483695 1.274698 -0.733426
C -3.817282 1.66889 -0.701391
C -4.832374 0.718749 -0.636745
H -5.291119 -1.385158 -0.552253
H -2.924643 -2.097802 -0.608558
H -1.685133 2.00955 -0.786317
H -4.061564 2.727127 -0.728512
H -5.872218 1.030507 -0.613563
N -0.801442 -0.444684 -0.737397
C -0.242412 -1.519977 -0.617866
H 1.157974 0.670963 -1.24501
O 0.394679 -2.492362 -0.520167
O 2.108332 0.490354 -1.284416
C 2.605171 0.455891 -0.017967
C 1.842714 0.814793 1.095075
C 3.928743 0.044183 0.146968
C 2.404818 0.751175 2.366837
H 0.812886 1.137834 0.965518
C 4.477796 -0.011568 1.421771
H 4.505306 -0.232683 -0.731238
C 3.721716 0.338512 2.539757
H 1.802582 1.030123 3.227432
H 5.506114 -0.335686 1.542967
H 4.156255 0.28962 3.534647
27
Scan Step 16
C -4.506659 -0.635036 -0.602653
C -3.177807 -1.039364 -0.632647
C -2.163519 -0.080863 -0.697897
C -2.484261 1.274659 -0.733219
C -3.817914 1.668634 -0.70166
C -4.832864 0.718333 -0.637263
H -5.291332 -1.385699 -0.552671
H -2.924667 -2.097857 -0.608139
H -1.685769 2.009686 -0.785929
H -4.062376 2.726892 -0.728965
H -5.872851 1.029937 -0.61446
N -0.801684 -0.444351 -0.736622
C -0.242191 -1.519482 -0.617998
H 1.158252 0.672157 -1.244745
O 0.395351 -2.491654 -0.521042
O 2.10843 0.490313 -1.284264
C 2.605409 0.455821 -0.017872
C 1.843387 0.815938 1.095062
C 3.928557 0.042787 0.147141
C 2.405505 0.75235 2.366809
H 0.813851 1.14 0.965415
C 4.477629 -0.01293 1.421928
H 4.504805 -0.235057 -0.730979
C 3.722005 0.338473 2.539814
H 1.803582 1.032263 3.227346
H 5.505752 -0.3381 1.543255
H 4.15655 0.289583 3.534677
27
Scan Step 17
C -4.506921 -0.635381 -0.6029
C -3.177973 -1.039525 -0.632444
C -2.16382 -0.080842 -0.69751
C -2.48479 1.274631 -0.733023
C -3.818522 1.668399 -0.701921
C -4.833342 0.717937 -0.637761
H -5.29139 -1.386079 -0.553081
H -2.924757 -2.097627 -0.607742
H -1.686507 2.009696 -0.785549
H -4.063123 2.726538 -0.7294
H -5.873367 1.029364 -0.615325
N -0.801919 -0.444032 -0.735877
C -0.241978 -1.519007 -0.618127
H 1.15853 0.673317 -1.244482
O 0.396002 -2.490969 -0.521887
O 2.108516 0.490272 -1.284113
C 2.605632 0.455752 -0.017778
C 1.844035 0.817039 1.095053
C 3.928383 0.041438 0.147292
C 2.406165 0.753485 2.366789
H 0.814756 1.142086 0.965323
C 4.477453 -0.014237 1.422077
H 4.504202 -0.237289 -0.730575
C 3.722292 0.338435 2.539884
H 1.804592 1.034298 3.227208
H 5.505547 -0.340467 1.54354
H 4.156759 0.28956 3.53452
27
Scan Step 18
C -4.507255 -0.635817 -0.6032
C -3.17817 -1.039747 -0.632194
C -2.164186 -0.080817 -0.697038
C -2.485423 1.274608 -0.732785
C -3.819265 1.668123 -0.702242
C -4.833932 0.717454 -0.638372
H -5.2913 -1.386393 -0.553592
H -2.924934 -2.097065 -0.607261
H -1.687545 2.009577 -0.785076
H -4.064002 2.725967 -0.729932
H -5.873894 1.028632 -0.616387
N -0.802207 -0.443643 -0.734963
C -0.241719 -1.518427 -0.618287
H 1.158894 0.674749 -1.244152
O 0.396804 -2.490125 -0.522924
O 2.10861 0.490219 -1.283924
C 2.605899 0.455666 -0.01766
C 1.844831 0.818391 1.095045
C 3.928172 0.039778 0.147461
C 2.406975 0.754882 2.366773
H 0.815847 1.144643 0.96522
C 4.477224 -0.015837 1.422258
H 4.503336 -0.239977 -0.729921
C 3.722653 0.338388 2.539983
H 1.805883 1.036772 3.22698
H 5.505421 -0.343409 1.543892
H 4.156945 0.289543 3.534143
27
Scan Step 19
C -4.507732 -0.636438 -0.603616
C -3.178435 -1.040081 -0.631847
C -2.16469 -0.080785 -0.696384
C -2.486281 1.274588 -0.732459
C -3.820292 1.667755 -0.70269
C -4.834758 0.71679 -0.63922
H -5.290984 -1.386645 -0.554312
H -2.925244 -2.096008 -0.606601
H -1.689137 2.00926 -0.784414
H -4.065174 2.725008 -0.73067
H -5.87448 1.027578 -0.617863
N -0.802607 -0.443106 -0.733696
C -0.241359 -1.517623 -0.618512
H 1.159453 0.676745 -1.243682
O 0.397926 -2.488948 -0.524368
O 2.108721 0.490143 -1.283655
C 2.606258 0.455546 -0.017493
C 1.845935 0.820271 1.095039
C 3.927879 0.037465 0.147678
C 2.408102 0.75683 2.36676
H 0.81735 1.148184 0.965095
C 4.476895 -0.018056 1.422507
H 4.501988 -0.243654 -0.72885
C 3.723166 0.338322 2.540132
H 1.80774 1.04018 3.226599
H 5.505321 -0.347517 1.544368
H 4.157137 0.289536 3.533432
27
Scan Step 20
C -4.50803 -0.636828 -0.603875
C -3.178602 -1.040285 -0.631631
C -2.165005 -0.080766 -0.695975
C -2.486813 1.274575 -0.732258
C -3.82093 1.667526 -0.702974
C -4.835273 0.716376 -0.639752
H -5.290768 -1.386786 -0.554762
H -2.925418 -2.095425 -0.606184
H -1.690131 2.009055 -0.784003
H -4.065897 2.724389 -0.731135
H -5.874806 1.02691 -0.618788
N -0.802859 -0.442772 -0.732903
C -0.241134 -1.517121 -0.618656
H 1.159841 0.678001 -1.24338
O 0.398636 -2.488206 -0.525276
O 2.108773 0.490093 -1.283479
C 2.606474 0.455468 -0.017383
C 1.846623 0.821454 1.095041
C 3.927684 0.036013 0.147813
C 2.408815 0.758056 2.366757
H 0.818311 1.150383 0.965034
C 4.476693 -0.01945 1.422664
H 4.501134 -0.245972 -0.728213
C 3.723489 0.33828 2.540218
H 1.808918 1.042314 3.226364
H 5.505137 -0.350053 1.544634
H 4.157293 0.289535 3.533028
27
Scan Step 21
C -4.508339 -0.637237 -0.60415
C -3.178781 -1.040485 -0.631401
C -2.165338 -0.080747 -0.695542
C -2.487378 1.274556 -0.732046
C -3.821601 1.667278 -0.703276
C -4.835814 0.715936 -0.640316
H -5.290592 -1.386987 -0.555235
H -2.925559 -2.09498 -0.605738
H -1.691124 2.008888 -0.783573
H -4.06667 2.723778 -0.731632
H -5.875165 1.026208 -0.619768
N -0.803126 -0.44242 -0.732061
C -0.240896 -1.516589 -0.61881
H 1.160264 0.679338 -1.243057
O 0.399395 -2.487414 -0.526242
O 2.108819 0.490038 -1.283289
C 2.606698 0.455384 -0.017264
C 1.847352 0.822713 1.095046
C 3.927465 0.034473 0.147962
C 2.409579 0.75936 2.366753
H 0.819354 1.1527 0.964982
C 4.476487 -0.020934 1.422831
H 4.500267 -0.248463 -0.72763
C 3.723831 0.338237 2.540299
H 1.810159 1.044589 3.226142
H 5.504804 -0.352702 1.544887
H 4.157515 0.289531 3.532704
27
Scan Step 22
C -4.508715 -0.637745 -0.604501
C -3.179017 -1.040709 -0.63111
C -2.165762 -0.080724 -0.694993
C -2.488107 1.27452 -0.731777
C -3.822448 1.666949 -0.703663
C -4.836489 0.715374 -0.641035
H -5.290522 -1.387389 -0.555825
H -2.925649 -2.09478 -0.605161
H -1.692238 2.008805 -0.783039
H -4.067678 2.723133 -0.732271
H -5.875696 1.025341 -0.621015
N -0.803467 -0.441974 -0.730991
C -0.240594 -1.515912 -0.619009
H 1.160791 0.681048 -1.242641
O 0.400367 -2.486401 -0.527475
O 2.108865 0.489964 -1.283042
C 2.606975 0.455275 -0.017107
C 1.848276 0.82432 1.095058
C 3.927165 0.032516 0.148167
C 2.410562 0.761022 2.366745
H 0.820715 1.155626 0.964933
C 4.476239 -0.02283 1.423044
H 4.499271 -0.251703 -0.727091
C 3.724259 0.338181 2.540379
H 1.811706 1.047508 3.225929
H 5.504143 -0.355998 1.545165
H 4.157912 0.289521 3.53252
27
Scan Step 23
C -4.509186 -0.638405 -0.60498
C -3.179353 -1.040946 -0.630715
C -2.166342 -0.080694 -0.694246
C -2.489123 1.274441 -0.731414
C -3.823584 1.666471 -0.704193
C -4.837378 0.714602 -0.642014
H -5.290807 -1.388302 -0.556603
H -2.925581 -2.095285 -0.604356
H -1.693401 2.009007 -0.782341
H -4.069117 2.722584 -0.733156
H -5.876635 1.024231 -0.622707
N -0.803932 -0.441371 -0.729534
C -0.240184 -1.51499 -0.619284
H 1.161434 0.683396 -1.242072
O 0.401704 -2.485014 -0.52916
O 2.108911 0.489858 -1.282696
C 2.60734 0.455123 -0.016886
C 1.849528 0.826519 1.095085
C 3.926714 0.029859 0.148479
C 2.411924 0.763291 2.366726
H 0.822625 1.159569 0.964893
C 4.475928 -0.025426 1.423337
H 4.498165 -0.256271 -0.726803
C 3.724831 0.338107 2.540441
H 1.813725 1.051545 3.225803
H 5.502816 -0.360355 1.545469
H 4.158695 0.289492 3.532755
27
Scan Step 24
C -4.50947 -0.638823 -0.605308
C -3.179593 -1.041055 -0.630448
C -2.166737 -0.080675 -0.69374
C -2.489834 1.274361 -0.731169
C -3.824342 1.666117 -0.704556
C -4.837953 0.714069 -0.642682
H -5.291351 -1.389258 -0.557108
H -2.925387 -2.096229 -0.603793
H -1.693876 2.009422 -0.781891
H -4.070159 2.722518 -0.733772
H -5.877498 1.023549 -0.623854
N -0.804248 -0.440964 -0.728545
C -0.239905 -1.514362 -0.619474
H 1.161765 0.68501 -1.241685
O 0.402624 -2.484063 -0.530313
O 2.108928 0.489779 -1.282452
C 2.607576 0.455016 -0.016727
C 1.850377 0.828023 1.095114
C 3.92637 0.028057 0.148719
C 2.41287 0.764838 2.366705
H 0.82395 1.162222 0.964886
C 4.475729 -0.027201 1.423534
H 4.497613 -0.259508 -0.726974
C 3.725211 0.338057 2.540446
H 1.815023 1.054349 3.225863
H 5.501651 -0.363239 1.545624
H 4.159417 0.289461 3.533293
27
Scan Step 25
C -4.509742 -0.639237 -0.605641
C -3.17984 -1.04115 -0.630176
C -2.167139 -0.080656 -0.693226
C -2.490564 1.274269 -0.730921
C -3.825104 1.665745 -0.704927
C -4.838521 0.713524 -0.643362
H -5.292049 -1.390371 -0.55761
H -2.925139 -2.097388 -0.603215
H -1.694232 2.009955 -0.781445
H -4.071243 2.722579 -0.734405
H -5.878479 1.02289 -0.625018
N -0.804572 -0.440551 -0.727539
C -0.239622 -1.513723 -0.61967
H 1.162042 0.686656 -1.241293
O 0.403568 -2.483089 -0.53149
O 2.108935 0.489696 -1.282198
C 2.607807 0.454904 -0.016559
C 1.851241 0.82956 1.095151
C 3.925999 0.026225 0.148973
C 2.413845 0.766417 2.366682
H 0.825294 1.164909 0.964892
C 4.475526 -0.029011 1.423731
H 4.497113 -0.262854 -0.727281
C 3.725599 0.338006 2.540439
H 1.816319 1.057232 3.225987
H 5.500414 -0.366161 1.545765
H 4.160223 0.28943 3.533964
27
Scan Step 26
C -4.510066 -0.639734 -0.606042
C -3.180133 -1.041274 -0.629849
C -2.16762 -0.080634 -0.692608
C -2.491437 1.274158 -0.730627
C -3.826016 1.665296 -0.705378
C -4.839197 0.712867 -0.644181
H -5.292893 -1.391716 -0.558214
H -2.924862 -2.098683 -0.60252
H -1.694658 2.010588 -0.780913
H -4.072543 2.722662 -0.735173
H -5.879681 1.022106 -0.62642
N -0.804962 -0.440055 -0.726328
C -0.23928 -1.512953 -0.619908
H 1.162348 0.688631 -1.240825
O 0.404714 -2.481909 -0.532913
O 2.108928 0.48959 -1.281886
C 2.608074 0.454767 -0.016351
C 1.852284 0.831418 1.095206
C 3.925538 0.024013 0.149276
C 2.415027 0.768326 2.366659
H 0.826881 1.168142 0.964909
C 4.475263 -0.03119 1.42396
H 4.496459 -0.266884 -0.72762
C 3.726075 0.337941 2.540433
H 1.817902 1.060719 3.226143
H 5.499043 -0.369727 1.545939
H 4.161183 0.289402 3.534703
27
Scan Step 27
C -4.510326 -0.640126 -0.606344
C -3.180342 -1.041407 -0.629602
C -2.167978 -0.080619 -0.692143
C -2.492075 1.274088 -0.730408
C -3.826702 1.664971 -0.705722
C -4.83971 0.712374 -0.6448
H -5.29334 -1.392553 -0.558679
H -2.924755 -2.099223 -0.602007
H -1.695148 2.010902 -0.780505
H -4.073481 2.722563 -0.735752
H -5.880484 1.021485 -0.627479
N -0.805258 -0.439682 -0.725416
C -0.239021 -1.512372 -0.62009
H 1.162605 0.690095 -1.240479
O 0.405588 -2.481012 -0.533992
O 2.108905 0.489507 -1.281644
C 2.608264 0.454662 -0.016188
C 1.853076 0.832826 1.095257
C 3.92519 0.022334 0.149484
C 2.415922 0.769777 2.366651
H 0.828029 1.170588 0.964929
C 4.475036 -0.03283 1.424124
H 4.495784 -0.269859 -0.727642
C 3.726453 0.33789 2.540451
H 1.819171 1.06334 3.22619
H 5.498278 -0.372515 1.546096
H 4.161798 0.2894 3.534976
27
Scan Step 28
C -4.510579 -0.640501 -0.606618
C -3.180522 -1.041565 -0.629375
C -2.168302 -0.080605 -0.691719
C -2.492639 1.274038 -0.730211
C -3.827329 1.66469 -0.706038
C -4.840185 0.711927 -0.645366
H -5.293556 -1.393134 -0.559115
H -2.924751 -2.099326 -0.601549
H -1.695762 2.011027 -0.780124
H -4.074295 2.722308 -0.736279
H -5.881101 1.020885 -0.628448
N -0.80553 -0.439342 -0.724584
C -0.238785 -1.511842 -0.620257
H 1.162874 0.691409 -1.240167
O 0.406392 -2.480188 -0.534981
O 2.108872 0.489429 -1.281418
C 2.608428 0.454565 -0.016035
C 1.853803 0.834116 1.09531
C 3.924873 0.020791 0.149654
C 2.416739 0.771109 2.366653
H 0.82904 1.172828 0.964952
C 4.474806 -0.034324 1.424266
H 4.495007 -0.27251 -0.727443
C 3.726812 0.33784 2.540488
H 1.820399 1.06572 3.226161
H 5.497793 -0.375137 1.546261
H 4.16226 0.289414 3.534971
27
Scan Step 29
C -4.5108 -0.640824 -0.606843
C -3.180663 -1.041722 -0.629187
C -2.168567 -0.080595 -0.691369
C -2.493089 1.274007 -0.730051
C -3.827846 1.66447 -0.7063
C -4.840583 0.711561 -0.645833
H -5.293577 -1.393464 -0.559483
H -2.924817 -2.099113 -0.601178
H -1.696404 2.011001 -0.779804
H -4.074932 2.721961 -0.736712
H -5.88151 1.020361 -0.62925
N -0.805755 -0.439062 -0.723898
C -0.238588 -1.511405 -0.620395
H 1.163123 0.692473 -1.239914
O 0.407059 -2.479504 -0.5358
O 2.108835 0.489363 -1.281229
C 2.608557 0.454483 -0.015905
C 1.854404 0.835183 1.095359
C 3.924614 0.019512 0.149781
C 2.417414 0.772213 2.366662
H 0.829851 1.174681 0.964974
C 4.474602 -0.035555 1.424378
H 4.494241 -0.274646 -0.727108
C 3.727121 0.337798 2.540534
H 1.821466 1.067671 3.226078
H 5.49754 -0.377353 1.546415
H 4.162564 0.289438 3.534774
27
Scan Step 30
C -4.510996 -0.641105 -0.607033
C -3.180776 -1.041871 -0.629028
C -2.168789 -0.080587 -0.691075
C -2.493459 1.273988 -0.729918
C -3.828282 1.664293 -0.706524
C -4.840924 0.711253 -0.646227
H -5.293494 -1.393647 -0.5598
H -2.924915 -2.098757 -0.60087
H -1.697031 2.010898 -0.77953
H -4.075448 2.721582 -0.737076
H -5.881788 1.0199 -0.629927
N -0.805946 -0.438825 -0.72332
C -0.238422 -1.511036 -0.620513
H 1.163348 0.693356 -1.239702
O 0.407625 -2.478924 -0.536493
O 2.108797 0.489306 -1.281068
C 2.60866 0.454414 -0.015794
C 1.854913 0.836085 1.095404
C 3.924395 0.018428 0.149878
C 2.417983 0.77315 2.366675
H 0.830525 1.176248 0.964997
C 4.474421 -0.036593 1.424468
H 4.493518 -0.276419 -0.726721
C 3.727388 0.337761 2.540583
H 1.822403 1.069312 3.225971
H 5.497403 -0.379254 1.546553
H 4.162775 0.289465 3.534492
27
Scan Step 31
C -4.511235 -0.641448 -0.607258
C -3.180907 -1.042061 -0.628839
C -2.169052 -0.080577 -0.690724
C -2.493893 1.27397 -0.72976
C -3.828802 1.664088 -0.706791
C -4.841332 0.710889 -0.646698
H -5.293315 -1.393788 -0.560181
H -2.925063 -2.098202 -0.600505
H -1.697846 2.01071 -0.7792
H -4.076045 2.72106 -0.737511
H -5.882063 1.019334 -0.630736
N -0.806173 -0.438544 -0.722631
C -0.238223 -1.510595 -0.620654
H 1.163624 0.694396 -1.239451
O 0.408304 -2.47823 -0.537322
O 2.108746 0.489236 -1.280872
C 2.608779 0.454331 -0.01566
C 1.85552 0.837164 1.095462
C 3.924132 0.017131 0.149988
C 2.418664 0.77427 2.366694
H 0.831321 1.178118 0.965028
C 4.474199 -0.037831 1.424572
H 4.492595 -0.278511 -0.726179
C 3.727713 0.337716 2.540648
H 1.82355 1.071266 3.225815
H 5.497287 -0.381539 1.546723
H 4.162996 0.289503 3.534069
27
Scan Step 32
C -4.511588 -0.641955 -0.607586
C -3.181093 -1.042347 -0.628562
C -2.169433 -0.080564 -0.690215
C -2.494515 1.27395 -0.729532
C -3.829558 1.663796 -0.707182
C -4.841929 0.710359 -0.647384
H -5.292971 -1.393914 -0.560741
H -2.925302 -2.097289 -0.599977
H -1.699096 2.010372 -0.778718
H -4.076895 2.720226 -0.738144
H -5.882397 1.01849 -0.631915
N -0.806504 -0.438135 -0.721628
C -0.237932 -1.509952 -0.620861
H 1.164019 0.695889 -1.239088
O 0.409296 -2.477214 -0.538533
O 2.108662 0.489133 -1.280584
C 2.608944 0.45421 -0.01546
C 1.856404 0.83874 1.095552
C 3.923743 0.015239 0.150141
C 2.419659 0.775906 2.366728
H 0.832482 1.180841 0.965081
C 4.473871 -0.039637 1.424717
H 4.491191 -0.281543 -0.725318
C 3.728193 0.337651 2.540749
H 1.825256 1.074115 3.225559
H 5.497127 -0.384877 1.546971
H 4.163296 0.289563 3.533385
27
Scan Step 33
C -4.512134 -0.642751 -0.608102
C -3.181386 -1.042779 -0.628128
C -2.170033 -0.080543 -0.689413
C -2.495492 1.273912 -0.729178
C -3.830739 1.663333 -0.707803
C -4.842861 0.709523 -0.648464
H -5.292472 -1.394156 -0.561619
H -2.925619 -2.096085 -0.599139
H -1.701002 2.009892 -0.77797
H -4.078237 2.718951 -0.739148
H -5.882912 1.017162 -0.633771
N -0.807026 -0.437494 -0.720053
C -0.237471 -1.508938 -0.621188
H 1.164561 0.698199 -1.238516
O 0.410872 -2.475605 -0.540447
O 2.108513 0.488962 -1.280123
C 2.609184 0.454016 -0.015136
C 1.857794 0.841232 1.095708
C 3.923098 0.012258 0.150391
C 2.421242 0.778492 2.366785
H 0.834354 1.185121 0.965187
C 4.473367 -0.042493 1.424934
H 4.489021 -0.286372 -0.724061
C 3.728952 0.337546 2.540893
H 1.82796 1.078642 3.225186
H 5.496642 -0.39007 1.547335
H 4.163854 0.289653 3.532449
27
Scan Step 34
C -4.5124 -0.643166 -0.608391
C -3.181563 -1.042953 -0.627888
C -2.170371 -0.080533 -0.688969
C -2.49606 1.273864 -0.728983
C -3.831382 1.663049 -0.708151
C -4.843354 0.709051 -0.649066
H -5.292541 -1.394623 -0.562085
H -2.925605 -2.096186 -0.598651
H -1.701738 2.00992 -0.777579
H -4.079051 2.718542 -0.739721
H -5.883385 1.016481 -0.634801
N -0.807313 -0.43714 -0.719179
C -0.23721 -1.50837 -0.621372
H 1.164731 0.699454 -1.238194
O 0.411758 -2.474701 -0.541519
O 2.10842 0.488859 -1.279859
C 2.609301 0.453907 -0.014948
C 1.85856 0.842629 1.095808
C 3.922691 0.010608 0.150566
C 2.422147 0.779933 2.366812
H 0.835473 1.187488 0.96527
C 4.473117 -0.0441 1.425047
H 4.488064 -0.289219 -0.723774
C 3.729363 0.337491 2.54093
H 1.829395 1.081242 3.225125
H 5.495902 -0.392816 1.547481
H 4.1644 0.289679 3.532417
27
Scan Step 35
C -4.512635 -0.64355 -0.608671
C -3.181742 -1.043084 -0.627658
C -2.170698 -0.080523 -0.68854
C -2.496622 1.273801 -0.728795
C -3.831996 1.662757 -0.708489
C -4.843815 0.708591 -0.649649
H -5.292812 -1.395271 -0.562522
H -2.925487 -2.096708 -0.598167
H -1.70226 2.010119 -0.777216
H -4.079877 2.718325 -0.740283
H -5.883961 1.015859 -0.635795
N -0.80759 -0.436801 -0.718336
C -0.236956 -1.507818 -0.62155
H 1.164836 0.700646 -1.23788
O 0.41262 -2.473822 -0.542559
O 2.108323 0.488756 -1.2796
C 2.609406 0.4538 -0.014762
C 1.859298 0.843983 1.09591
C 3.922272 0.009019 0.150754
C 2.423035 0.781327 2.366835
H 0.836593 1.189772 0.965363
C 4.472892 -0.045664 1.425152
H 4.487281 -0.292061 -0.723731
C 3.729754 0.337438 2.540942
H 1.830739 1.083801 3.225153
H 5.494949 -0.395397 1.547593
H 4.165057 0.28969 3.532654
27
Scan Step 36
C -4.512891 -0.643991 -0.609005