 Entering Gaussian System, Link 0=g16
 Initial command:
 /software/gaussian/g16-c01/avx2/g16/l1.exe "/local_scratch/24931802/Gau-19756.inp" -scrdir="/local_scratch/24931802/"
 Entering Link 1 = /software/gaussian/g16-c01/avx2/g16/l1.exe PID=     19757.
  
 Copyright (c) 1988-2019, Gaussian, Inc.  All Rights Reserved.
  
 This is part of the Gaussian(R) 16 program.  It is based on
 the Gaussian(R) 09 system (copyright 2009, Gaussian, Inc.),
 the Gaussian(R) 03 system (copyright 2003, Gaussian, Inc.),
 the Gaussian(R) 98 system (copyright 1998, Gaussian, Inc.),
 the Gaussian(R) 94 system (copyright 1995, Gaussian, Inc.),
 the Gaussian 92(TM) system (copyright 1992, Gaussian, Inc.),
 the Gaussian 90(TM) system (copyright 1990, Gaussian, Inc.),
 the Gaussian 88(TM) system (copyright 1988, Gaussian, Inc.),
 the Gaussian 86(TM) system (copyright 1986, Carnegie Mellon
 University), and the Gaussian 82(TM) system (copyright 1983,
 Carnegie Mellon University). Gaussian is a federally registered
 trademark of Gaussian, Inc.
  
 This software contains proprietary and confidential information,
 including trade secrets, belonging to Gaussian, Inc.
  
 This software is provided under written license and may be
 used, copied, transmitted, or stored only in accord with that
 written license.
  
 The following legend is applicable only to US Government
 contracts under FAR:
  
                    RESTRICTED RIGHTS LEGEND
  
 Use, reproduction and disclosure by the US Government is
 subject to restrictions as set forth in subparagraphs (a)
 and (c) of the Commercial Computer Software - Restricted
 Rights clause in FAR 52.227-19.
  
 Gaussian, Inc.
 340 Quinnipiac St., Bldg. 40, Wallingford CT 06492
  
  
 ---------------------------------------------------------------
 Warning -- This program may not be used in any manner that
 competes with the business of Gaussian, Inc. or will provide
 assistance to any competitor of Gaussian, Inc.  The licensee
 of this program is prohibited from giving any competitor of
 Gaussian, Inc. access to this program.  By using this program,
 the user acknowledges that Gaussian, Inc. is engaged in the
 business of creating and licensing software in the field of
 computational chemistry and represents and warrants to the
 licensee that it is not a competitor of Gaussian, Inc. and that
 it will not use this program in any manner prohibited above.
 ---------------------------------------------------------------
  

 Cite this work as:
 Gaussian 16, Revision C.01,
 M. J. Frisch, G. W. Trucks, H. B. Schlegel, G. E. Scuseria, 
 M. A. Robb, J. R. Cheeseman, G. Scalmani, V. Barone, 
 G. A. Petersson, H. Nakatsuji, X. Li, M. Caricato, A. V. Marenich, 
 J. Bloino, B. G. Janesko, R. Gomperts, B. Mennucci, H. P. Hratchian, 
 J. V. Ortiz, A. F. Izmaylov, J. L. Sonnenberg, D. Williams-Young, 
 F. Ding, F. Lipparini, F. Egidi, J. Goings, B. Peng, A. Petrone, 
 T. Henderson, D. Ranasinghe, V. G. Zakrzewski, J. Gao, N. Rega, 
 G. Zheng, W. Liang, M. Hada, M. Ehara, K. Toyota, R. Fukuda, 
 J. Hasegawa, M. Ishida, T. Nakajima, Y. Honda, O. Kitao, H. Nakai, 
 T. Vreven, K. Throssell, J. A. Montgomery, Jr., J. E. Peralta, 
 F. Ogliaro, M. J. Bearpark, J. J. Heyd, E. N. Brothers, K. N. Kudin, 
 V. N. Staroverov, T. A. Keith, R. Kobayashi, J. Normand, 
 K. Raghavachari, A. P. Rendell, J. C. Burant, S. S. Iyengar, 
 J. Tomasi, M. Cossi, J. M. Millam, M. Klene, C. Adamo, R. Cammi, 
 J. W. Ochterski, R. L. Martin, K. Morokuma, O. Farkas, 
 J. B. Foresman, and D. J. Fox, Gaussian, Inc., Wallingford CT, 2019.
 
 ******************************************
 Gaussian 16:  ES64L-G16RevC.01  3-Jul-2019
                28-May-2024 
 ******************************************
 %chk=geometry.chk
 %mem=56GB
 %nprocshared=24
 Will use up to   24 processors via shared memory.
 --------------------------------
 #P OPT=QST3 wB97XD/6-31G* NoSymm
 --------------------------------
 1/5=1,18=20,26=3,27=203,38=1/1,3;
 2/9=110,12=2,15=1,17=6,18=5,40=1/2;
 3/5=1,6=6,7=1,11=2,25=1,30=1,71=1,74=-58/1,2,3;
 4//1;
 5/5=2,38=5/2;
 6/7=2,8=2,9=2,10=2,28=1/1;
 7/30=1/1,2,3,16;
 1/5=1,18=20,26=3,27=203/3(2);
 2/9=110,15=1/2;
 99//99;
 2/9=110,15=1/2;
 3/5=1,6=6,7=1,11=2,25=1,30=1,71=1,74=-58/1,2,3;
 4/5=5,16=3,69=1/1;
 5/5=2,38=5/2;
 7/30=1/1,2,3,16;
 1/5=1,18=20,26=3,27=203/3(-5);
 2/9=110,15=1/2;
 6/7=2,8=2,9=2,10=2,19=2,28=1/1;
 99/9=1/99;
 Leave Link    1 at Tue May 28 16:55:02 2024, MaxMem=  7516192768 cpu:               2.5 elap:               0.1
 (Enter /software/gaussian/g16-c01/avx2/g16/l101.exe)
 ---------
 Reactants
 ---------
 Symbolic Z-matrix:
 Charge =  0 Multiplicity = 1
 C                    -0.69984  -1.0743    0.09262 
 C                     0.68396  -1.19143   0.03727 
 C                     1.47444  -0.03936   0.02601 
 C                     0.87781   1.22053   0.07001 
 C                    -0.50715   1.32522   0.12518 
 C                    -1.3007    0.18113   0.13675 
 H                    -1.31029  -1.9721    0.10124 
 H                     1.15451  -2.16968   0.00276 
 H                     1.5085    2.10294   0.06037 
 H                    -0.96734   2.30789   0.15935 
 H                    -2.3818    0.26678   0.17992 
 N                     2.87018  -0.10552  -0.029 
 C                     3.74755  -0.9315   -0.07624 
 O                     4.68782  -1.63112  -0.12393 
 H                     4.40905   0.56702   1.26478 
 O                     5.02073  -0.17748   1.22299 
 C                     5.92044  -0.07252   2.2387 
 C                     5.89774   0.97619   3.15818 
 C                     6.89246  -1.06881   2.33898 
 C                     6.84795   1.02422   4.17477 
 H                     5.14019   1.7536    3.08076 
 C                     7.83432  -1.00868   3.35776 
 H                     6.89215  -1.87564   1.61355 
 C                     7.82005   0.0355    4.28172 
 H                     6.82293   1.84438   4.88635 
 H                     8.58823  -1.78717   3.4303 
 H                     8.55911   0.07624   5.0753 
 
 Add virtual bond connecting atoms H15        and N12        Dist= 4.01D+00.
 Add virtual bond connecting atoms H15        and C13        Dist= 4.00D+00.
 Add virtual bond connecting atoms O16        and C13        Dist= 3.72D+00.
 Add virtual bond connecting atoms O16        and O14        Dist= 3.80D+00.
 -------
 Product
 -------
 Symbolic Z-matrix:
 Charge =  0 Multiplicity = 1
 C                    -0.50003  -1.12927  -0.05593 
 C                     0.88725  -1.00997  -0.05319 
 C                     1.48169   0.26727   0.01346 
 C                     0.64769   1.40976   0.0769 
 C                    -0.73474   1.26359   0.07457 
 C                    -1.31599  -0.00196   0.00782 
 H                    -0.95083  -2.13224  -0.10868 
 H                     1.51049  -1.91858  -0.10422 
 H                     1.08224   2.41945   0.12991 
 H                    -1.37204   2.15943   0.12526 
 H                    -2.40999  -0.10823   0.00559 
 N                     2.87436   0.46121   0.03558 
 C                     3.81863  -0.5263   -0.15171 
 H                     3.20373   1.39941   0.10556 
 O                     3.68751  -1.74802  -0.29478 
 O                     5.09267   0.03865  -0.16381 
 C                     6.1909   -0.81846  -0.24236 
 C                     7.22404  -0.56812   0.67283 
 C                     6.31458  -1.78927  -1.2414 
 C                     8.40495  -1.29858   0.56218 
 H                     7.09763   0.19877   1.44939 
 C                     7.50352  -2.51371  -1.32624 
 H                     5.4771   -1.98917  -1.92579 
 C                     8.54529  -2.26824  -0.43212 
 H                     9.22787  -1.11071   1.26764 
 H                     7.61462  -3.28342  -2.10437 
 H                     9.47999  -2.84302  -0.50769 
 
 ----------------------
 Transition State Guess
 ----------------------
 Symbolic Z-matrix:
 Charge =  0 Multiplicity = 1
 C                    -0.65295  -1.29303   0.07674 
 C                     0.74794  -1.32946   0.0876 
 C                     1.47997  -0.13444   0.08805 
 C                     0.81111   1.097     0.07766 
 C                    -0.58977   1.13343   0.0668 
 C                    -1.3218   -0.06159   0.06634 
 H                    -1.21187  -2.20545   0.07639 
 H                     1.25862  -2.26969   0.09554 
 H                     1.37003   2.00942   0.078 
 H                    -1.10046   2.07366   0.05886 
 H                    -2.39141  -0.03377   0.05805 
 N                     2.94943  -0.17265   0.09944 
 C                     3.97249  -1.09961   0.11128 
 H                     4.03019   0.70873   0.10395 
 O                     3.96612  -2.52958   0.11807 
 O                     5.11701  -0.08095   0.11492 
 C                     6.06982  -0.02912   1.17998 
 C                     6.03331   1.02552   2.10211 
 C                     7.04009  -1.03296   1.30161 
 C                     6.96707   1.07632   3.14587 
 H                     5.29249   1.79198   2.00924 
 C                     7.97385  -0.98217   2.34537 
 H                     7.06796  -1.8382    0.59755 
 C                     7.93734   0.07247   3.2675 
 H                     6.9392    1.88156   3.84993 
 H                     8.71467  -1.74863   2.43824 
 H                     8.65029   0.11126   4.06443 
 
 ITRead=  0  0  0  0  0  0  0  0  0  0  0  0  0  0  0  0  0  0  0  0
 ITRead=  0  0  0  0  0  0  0
 MicOpt= -1 -1 -1 -1 -1 -1 -1 -1 -1 -1 -1 -1 -1 -1 -1 -1 -1 -1 -1 -1
 MicOpt= -1 -1 -1 -1 -1 -1 -1
 NAtoms=     27 NQM=       27 NQMF=       0 NMMI=      0 NMMIF=      0
                NMic=       0 NMicF=      0.
                    Isotopes and Nuclear Properties:
 (Nuclear quadrupole moments (NQMom) in fm**2, nuclear magnetic moments (NMagM)
  in nuclear magnetons)

  Atom         1           2           3           4           5           6           7           8           9          10
 IAtWgt=          12          12          12          12          12          12           1           1           1           1
 AtmWgt=  12.0000000  12.0000000  12.0000000  12.0000000  12.0000000  12.0000000   1.0078250   1.0078250   1.0078250   1.0078250
 NucSpn=           0           0           0           0           0           0           1           1           1           1
 AtZEff=  -0.0000000  -0.0000000  -0.0000000  -0.0000000  -0.0000000  -0.0000000  -0.0000000  -0.0000000  -0.0000000  -0.0000000
 NQMom=    0.0000000   0.0000000   0.0000000   0.0000000   0.0000000   0.0000000   0.0000000   0.0000000   0.0000000   0.0000000
 NMagM=    0.0000000   0.0000000   0.0000000   0.0000000   0.0000000   0.0000000   2.7928460   2.7928460   2.7928460   2.7928460
 AtZNuc=   6.0000000   6.0000000   6.0000000   6.0000000   6.0000000   6.0000000   1.0000000   1.0000000   1.0000000   1.0000000

  Atom        11          12          13          14          15          16          17          18          19          20
 IAtWgt=           1          14          12           1          16          16          12          12          12          12
 AtmWgt=   1.0078250  14.0030740  12.0000000   1.0078250  15.9949146  15.9949146  12.0000000  12.0000000  12.0000000  12.0000000
 NucSpn=           1           2           0           1           0           0           0           0           0           0
 AtZEff=  -0.0000000  -0.0000000  -0.0000000  -0.0000000  -0.0000000  -0.0000000  -0.0000000  -0.0000000  -0.0000000  -0.0000000
 NQMom=    0.0000000   2.0440000   0.0000000   0.0000000   0.0000000   0.0000000   0.0000000   0.0000000   0.0000000   0.0000000
 NMagM=    2.7928460   0.4037610   0.0000000   2.7928460   0.0000000   0.0000000   0.0000000   0.0000000   0.0000000   0.0000000
 AtZNuc=   1.0000000   7.0000000   6.0000000   1.0000000   8.0000000   8.0000000   6.0000000   6.0000000   6.0000000   6.0000000

  Atom        21          22          23          24          25          26          27
 IAtWgt=           1          12           1          12           1           1           1
 AtmWgt=   1.0078250  12.0000000   1.0078250  12.0000000   1.0078250   1.0078250   1.0078250
 NucSpn=           1           0           1           0           1           1           1
 AtZEff=  -0.0000000  -0.0000000  -0.0000000  -0.0000000  -0.0000000  -0.0000000  -0.0000000
 NQMom=    0.0000000   0.0000000   0.0000000   0.0000000   0.0000000   0.0000000   0.0000000
 NMagM=    2.7928460   0.0000000   2.7928460   0.0000000   2.7928460   2.7928460   2.7928460
 AtZNuc=   1.0000000   6.0000000   1.0000000   6.0000000   1.0000000   1.0000000   1.0000000
 Leave Link  101 at Tue May 28 16:55:03 2024, MaxMem=  7516192768 cpu:              10.9 elap:               0.5
 (Enter /software/gaussian/g16-c01/avx2/g16/l103.exe)

 GradGradGradGradGradGradGradGradGradGradGradGradGradGradGradGradGradGrad
 Berny optimization.
 Initialization pass.
                           ----------------------------
                           !    Initial Parameters    !
                           ! (Angstroms and Degrees)  !
 --------------------------                            --------------------------
 ! Name  Definition         TS        Reactant Product Derivative Info.         !
 --------------------------------------------------------------------------------
 ! R1    R(1,2)             1.4014    1.3899    1.3924 estimate D2E/DX2         !
 ! R2    R(1,6)             1.4014    1.3925    1.3931 estimate D2E/DX2         !
 ! R3    R(1,7)             1.07      1.0857    1.1009 estimate D2E/DX2         !
 ! R4    R(2,3)             1.4014    1.3972    1.4104 estimate D2E/DX2         !
 ! R5    R(2,8)             1.07      1.0861    1.103  estimate D2E/DX2         !
 ! R6    R(3,4)             1.4014    1.3947    1.4159 estimate D2E/DX2         !
 ! R7    R(3,12)            1.47      1.3984    1.4063 estimate D2E/DX2         !
 ! R8    R(4,5)             1.4014    1.39      1.3901 estimate D2E/DX2         !
 ! R9    R(4,9)             1.07      1.0847    1.1005 estimate D2E/DX2         !
 ! R10   R(5,6)             1.4014    1.3924    1.3942 estimate D2E/DX2         !
 ! R11   R(5,10)            1.07      1.0856    1.1006 estimate D2E/DX2         !
 ! R12   R(6,11)            1.07      1.0853    1.0992 estimate D2E/DX2         !
 ! R13   R(12,13)           1.3806    1.2059    1.3791 estimate D2E/DX2         !
 ! R14   R(12,14)           1.3946    2.3749    0.9968 estimate D2E/DX2         !
 ! R15   R(12,15)           2.5669    2.12      2.3772 estimate D2E/DX2         !
 ! R16   R(13,14)           1.8093    1.173     2.0378 estimate D2E/DX2         !
 ! R17   R(13,15)           1.43      2.1169    1.237  estimate D2E/DX2         !
 ! R18   R(13,16)           1.5322    1.9691    1.3937 estimate D2E/DX2         !
 ! R19   R(14,16)           1.3435    2.0095    2.3436 estimate D2E/DX2         !
 ! R20   R(15,16)           2.7056    0.9645    2.2768 estimate D2E/DX2         !
 ! R21   R(16,17)           1.43      1.3609    1.3953 estimate D2E/DX2         !
 ! R22   R(17,18)           1.4014    1.3949    1.4027 estimate D2E/DX2         !
 ! R23   R(17,19)           1.4014    1.3955    1.3985 estimate D2E/DX2         !
 ! R24   R(18,20)           1.4014    1.3924    1.393  estimate D2E/DX2         !
 ! R25   R(18,21)           1.07      1.0882    1.0987 estimate D2E/DX2         !
 ! R26   R(19,22)           1.4014    1.3888    1.3948 estimate D2E/DX2         !
 ! R27   R(19,23)           1.07      1.085     1.0999 estimate D2E/DX2         !
 ! R28   R(20,24)           1.4014    1.3907    1.3959 estimate D2E/DX2         !
 ! R29   R(20,25)           1.07      1.0861    1.1001 estimate D2E/DX2         !
 ! R30   R(22,24)           1.4014    1.3944    1.3946 estimate D2E/DX2         !
 ! R31   R(22,26)           1.07      1.0861    1.1001 estimate D2E/DX2         !
 ! R32   R(24,27)           1.07      1.0852    1.0999 estimate D2E/DX2         !
 ! A1    A(2,1,6)         120.0     120.4549  120.94   estimate D2E/DX2         !
 ! A2    A(2,1,7)         120.0     119.3692  119.0872 estimate D2E/DX2         !
 ! A3    A(6,1,7)         120.0     120.1759  119.9729 estimate D2E/DX2         !
 ! A4    A(1,2,3)         120.0     119.6115  119.8424 estimate D2E/DX2         !
 ! A5    A(1,2,8)         120.0     120.5666  119.491  estimate D2E/DX2         !
 ! A6    A(3,2,8)         120.0     119.8219  120.6666 estimate D2E/DX2         !
 ! A7    A(2,3,4)         120.0     120.17    118.9848 estimate D2E/DX2         !
 ! A8    A(2,3,12)        120.0     121.7345  122.8907 estimate D2E/DX2         !
 ! A9    A(4,3,12)        120.0     118.0956  118.1204 estimate D2E/DX2         !
 ! A10   A(3,4,5)         120.0     119.7034  120.0547 estimate D2E/DX2         !
 ! A11   A(3,4,9)         120.0     119.0697  120.6555 estimate D2E/DX2         !
 ! A12   A(5,4,9)         120.0     121.2269  119.2898 estimate D2E/DX2         !
 ! A13   A(4,5,6)         120.0     120.4172  120.6708 estimate D2E/DX2         !
 ! A14   A(4,5,10)        120.0     119.4578  119.353  estimate D2E/DX2         !
 ! A15   A(6,5,10)        120.0     120.125   119.9762 estimate D2E/DX2         !
 ! A16   A(1,6,5)         120.0     119.6431  119.5073 estimate D2E/DX2         !
 ! A17   A(1,6,11)        120.0     120.1465  120.3079 estimate D2E/DX2         !
 ! A18   A(5,6,11)        120.0     120.2105  120.1848 estimate D2E/DX2         !
 ! A19   A(3,12,13)       139.3125  139.4745  125.253  estimate D2E/DX2         !
 ! A20   A(3,12,14)       139.3125  142.7364  117.2673 estimate D2E/DX2         !
 ! A21   A(3,12,15)       114.8253  133.2749  102.0286 estimate D2E/DX2         !
 ! A22   A(13,12,14)       81.3751    3.2619  117.2098 estimate D2E/DX2         !
 ! A23   L(12,13,14,15,-1)  310.351  174.9911  286.9019 estimate D2E/DX2        !
 ! A24   L(12,13,14,15,-2)  181.0459  184.4537    1.6842 estimate D2E/DX2       !
 ! A25   A(12,13,15)      131.924    73.6017  130.5662 estimate D2E/DX2         !
 ! A26   A(12,13,16)       96.1521  100.5033  109.684  estimate D2E/DX2         !
 ! A27   A(14,13,15)      178.427   101.3894  156.3357 estimate D2E/DX2         !
 ! A28   A(15,13,16)      131.924    26.9946  119.7495 estimate D2E/DX2         !
 ! A29   A(12,15,16)       48.5084  100.8969   58.2532 estimate D2E/DX2         !
 ! A30   A(13,16,17)      121.5728  161.6947  118.0984 estimate D2E/DX2         !
 ! A31   A(14,16,15)      100.8284  118.8407   87.9836 estimate D2E/DX2         !
 ! A32   A(14,16,17)      121.5871  131.7253  175.9766 estimate D2E/DX2         !
 ! A33   A(15,16,17)      108.3824  109.1115   90.0277 estimate D2E/DX2         !
 ! A34   A(16,17,18)      120.0     122.628   115.6805 estimate D2E/DX2         !
 ! A35   A(16,17,19)      120.0     117.3253  122.4272 estimate D2E/DX2         !
 ! A36   A(18,17,19)      120.0     120.0467  121.6568 estimate D2E/DX2         !
 ! A37   A(17,18,20)      120.0     119.7426  118.6193 estimate D2E/DX2         !
 ! A38   A(17,18,21)      120.0     120.1004  120.0643 estimate D2E/DX2         !
 ! A39   A(20,18,21)      120.0     120.1571  121.3127 estimate D2E/DX2         !
 ! A40   A(17,19,22)      120.0     119.6167  118.6435 estimate D2E/DX2         !
 ! A41   A(17,19,23)      120.0     118.8582  120.221  estimate D2E/DX2         !
 ! A42   A(22,19,23)      120.0     121.5251  121.1171 estimate D2E/DX2         !
 ! A43   A(18,20,24)      120.0     120.5748  120.4027 estimate D2E/DX2         !
 ! A44   A(18,20,25)      120.0     119.2536  119.5826 estimate D2E/DX2         !
 ! A45   A(24,20,25)      120.0     120.1715  120.0141 estimate D2E/DX2         !
 ! A46   A(19,22,24)      120.0     120.7702  120.4183 estimate D2E/DX2         !
 ! A47   A(19,22,26)      120.0     119.2564  119.5039 estimate D2E/DX2         !
 ! A48   A(24,22,26)      120.0     119.9734  120.0778 estimate D2E/DX2         !
 ! A49   A(20,24,22)      120.0     119.2491  120.2539 estimate D2E/DX2         !
 ! A50   A(20,24,27)      120.0     120.3715  119.8267 estimate D2E/DX2         !
 ! A51   A(22,24,27)      120.0     120.3794  119.919  estimate D2E/DX2         !
 ! D1    D(6,1,2,3)        -0.0001    0.0001   -0.0681 estimate D2E/DX2         !
 ! D2    D(6,1,2,8)      -179.9999 -179.9982  179.9846 estimate D2E/DX2         !
 ! D3    D(7,1,2,3)       180.0    -179.9967  179.9772 estimate D2E/DX2         !
 ! D4    D(7,1,2,8)         0.0002    0.005     0.03   estimate D2E/DX2         !
 ! D5    D(2,1,6,5)        -0.0001    0.0026    0.0355 estimate D2E/DX2         !
 ! D6    D(2,1,6,11)     -180.0    -179.9984 -179.9646 estimate D2E/DX2         !
 ! D7    D(7,1,6,5)       179.9999  179.9993  179.9898 estimate D2E/DX2         !
 ! D8    D(7,1,6,11)        0.0      -0.0016   -0.0103 estimate D2E/DX2         !
 ! D9    D(1,2,3,4)         0.0002   -0.002     0.0118 estimate D2E/DX2         !
 ! D10   D(1,2,3,12)     -179.9998 -179.9975  179.2534 estimate D2E/DX2         !
 ! D11   D(8,2,3,4)      -180.0     179.9963  179.9585 estimate D2E/DX2         !
 ! D12   D(8,2,3,12)        0.0       0.0008   -0.8    estimate D2E/DX2         !
 ! D13   D(2,3,4,5)        -0.0002    0.0013    0.0765 estimate D2E/DX2         !
 ! D14   D(2,3,4,9)      -180.0    -179.9974  179.986  estimate D2E/DX2         !
 ! D15   D(12,3,4,5)      179.9998  179.9969 -179.2013 estimate D2E/DX2         !
 ! D16   D(12,3,4,9)        0.0      -0.0018    0.7081 estimate D2E/DX2         !
 ! D17   D(2,3,12,13)      -0.0027   -0.0329    7.5783 estimate D2E/DX2         !
 ! D18   D(2,3,12,14)    -179.9973   -0.0304 -178.5776 estimate D2E/DX2         !
 ! D19   D(2,3,12,15)      -0.0183 -119.6962    5.7212 estimate D2E/DX2         !
 ! D20   D(4,3,12,13)     179.9973  179.9716 -173.174  estimate D2E/DX2         !
 ! D21   D(4,3,12,14)       0.0027  179.974     0.6702 estimate D2E/DX2         !
 ! D22   D(4,3,12,15)     179.9817   60.3082 -175.0311 estimate D2E/DX2         !
 ! D23   D(3,4,5,6)         0.0001    0.0014   -0.1105 estimate D2E/DX2         !
 ! D24   D(3,4,5,10)      180.0     179.9973  179.9399 estimate D2E/DX2         !
 ! D25   D(9,4,5,6)       179.9998 -179.9999  179.9789 estimate D2E/DX2         !
 ! D26   D(9,4,5,10)       -0.0003   -0.004     0.0293 estimate D2E/DX2         !
 ! D27   D(4,5,6,1)         0.0001   -0.0033    0.0546 estimate D2E/DX2         !
 ! D28   D(4,5,6,11)      180.0     179.9976 -179.9454 estimate D2E/DX2         !
 ! D29   D(10,5,6,1)     -179.9998 -179.9992 -179.9962 estimate D2E/DX2         !
 ! D30   D(10,5,6,11)       0.0001    0.0017    0.0039 estimate D2E/DX2         !
 ! D31   D(3,12,13,15)     -0.0341 -138.6676   -4.5987 estimate D2E/DX2         !
 ! D32   D(3,12,13,16)    179.9747 -136.4048  175.5969 estimate D2E/DX2         !
 ! D33   D(14,12,13,15)   179.9623   41.358  -178.4461 estimate D2E/DX2         !
 ! D34   D(14,12,13,16)    -0.0289   43.6208    1.7495 estimate D2E/DX2         !
 ! D35   D(3,12,15,16)    179.9821  139.2548  176.2941 estimate D2E/DX2         !
 ! D36   D(12,13,16,17)   119.7003  136.9988  175.2795 estimate D2E/DX2         !
 ! D37   D(15,13,16,17)   -60.291   141.7854   -4.5494 estimate D2E/DX2         !
 ! D38   D(12,15,16,14)     0.0327    8.8229   -0.624  estimate D2E/DX2         !
 ! D39   D(12,15,16,17)   128.7537 -165.4096  175.8778 estimate D2E/DX2         !
 ! D40   D(13,16,17,18)  -107.4004 -139.2469 -132.3782 estimate D2E/DX2         !
 ! D41   D(13,16,17,19)    72.5996   40.7401   53.1163 estimate D2E/DX2         !
 ! D42   D(14,16,17,18)   -12.5996 -173.1867  -74.1663 estimate D2E/DX2         !
 ! D43   D(14,16,17,19)   167.4004    6.8003  111.3282 estimate D2E/DX2         !
 ! D44   D(15,16,17,18)  -128.4957    0.0399 -134.5225 estimate D2E/DX2         !
 ! D45   D(15,16,17,19)    51.5043 -179.9731   50.972  estimate D2E/DX2         !
 ! D46   D(16,17,18,20)  -179.9999  179.9904 -173.6636 estimate D2E/DX2         !
 ! D47   D(16,17,18,21)     0.0      -0.0175    5.6387 estimate D2E/DX2         !
 ! D48   D(19,17,18,20)     0.0001    0.0038    0.8881 estimate D2E/DX2         !
 ! D49   D(19,17,18,21)   180.0     179.9958 -179.8096 estimate D2E/DX2         !
 ! D50   D(16,17,19,22)   179.9999 -179.9948  173.7053 estimate D2E/DX2         !
 ! D51   D(16,17,19,23)     0.0       0.006    -7.8388 estimate D2E/DX2         !
 ! D52   D(18,17,19,22)    -0.0001   -0.0075   -0.4762 estimate D2E/DX2         !
 ! D53   D(18,17,19,23)   180.0     179.9933  177.9796 estimate D2E/DX2         !
 ! D54   D(17,18,20,24)     0.0001    0.0023   -0.6818 estimate D2E/DX2         !
 ! D55   D(17,18,20,25)   179.9999  179.9975  179.6195 estimate D2E/DX2         !
 ! D56   D(21,18,20,24)  -179.9998 -179.9897 -179.975  estimate D2E/DX2         !
 ! D57   D(21,18,20,25)     0.0       0.0055    0.3263 estimate D2E/DX2         !
 ! D58   D(17,19,22,24)     0.0       0.0052   -0.1458 estimate D2E/DX2         !
 ! D59   D(17,19,22,26)   179.9999 -179.9977  179.7728 estimate D2E/DX2         !
 ! D60   D(23,19,22,24)   179.9999 -179.9957 -178.5873 estimate D2E/DX2         !
 ! D61   D(23,19,22,26)    -0.0002    0.0015    1.3314 estimate D2E/DX2         !
 ! D62   D(18,20,24,22)    -0.0002   -0.0046    0.0826 estimate D2E/DX2         !
 ! D63   D(18,20,24,27)   180.0     179.9945 -179.6921 estimate D2E/DX2         !
 ! D64   D(25,20,24,22)   180.0    -179.9998  179.7799 estimate D2E/DX2         !
 ! D65   D(25,20,24,27)     0.0002   -0.0006    0.0053 estimate D2E/DX2         !
 ! D66   D(19,22,24,20)     0.0002    0.0008    0.3414 estimate D2E/DX2         !
 ! D67   D(19,22,24,27)   180.0    -179.9983 -179.8842 estimate D2E/DX2         !
 ! D68   D(26,22,24,20)  -179.9997 -179.9963 -179.5769 estimate D2E/DX2         !
 ! D69   D(26,22,24,27)     0.0001    0.0046    0.1976 estimate D2E/DX2         !
 --------------------------------------------------------------------------------
 Trust Radius=3.00D-01 FncErr=1.00D-07 GrdErr=1.00D-06 EigMax=2.50D+02 EigMin=1.00D-04
 Number of steps in this run=    162 maximum allowed number of steps=    162.
 Search for a saddle point of order  1.
 GradGradGradGradGradGradGradGradGradGradGradGradGradGradGradGradGradGrad

 Leave Link  103 at Tue May 28 16:55:03 2024, MaxMem=  7516192768 cpu:               0.3 elap:               0.0
 (Enter /software/gaussian/g16-c01/avx2/g16/l202.exe)
                          Input orientation:                          
 ---------------------------------------------------------------------
 Center     Atomic      Atomic             Coordinates (Angstroms)
 Number     Number       Type             X           Y           Z
 ---------------------------------------------------------------------
      1          6           0       -0.652946   -1.293028    0.076742
      2          6           0        0.747938   -1.329455    0.087600
      3          6           0        1.479966   -0.134443    0.088055
      4          6           0        0.811111    1.096998    0.077657
      5          6           0       -0.589774    1.133425    0.066798
      6          6           0       -1.321802   -0.061588    0.066340
      7          1           0       -1.211866   -2.205447    0.076394
      8          1           0        1.258624   -2.269688    0.095540
      9          1           0        1.370031    2.009417    0.078004
     10          1           0       -1.100460    2.073657    0.058859
     11          1           0       -2.391409   -0.033774    0.058049
     12          7           0        2.949426   -0.172653    0.099440
     13          6           0        3.972492   -1.099612    0.111278
     14          1           0        4.030195    0.708733    0.103949
     15          8           0        3.966124   -2.529582    0.118074
     16          8           0        5.117006   -0.080947    0.114917
     17          6           0        6.069821   -0.029116    1.179979
     18          6           0        6.033312    1.025525    2.102108
     19          6           0        7.040089   -1.032963    1.301611
     20          6           0        6.967072    1.076320    3.145868
     21          1           0        5.292492    1.791984    2.009239
     22          6           0        7.973849   -0.982167    2.345370
     23          1           0        7.067964   -1.838205    0.597545
     24          6           0        7.937342    0.072475    3.267497
     25          1           0        6.939198    1.881562    3.849932
     26          1           0        8.714669   -1.748627    2.438239
     27          1           0        8.650289    0.111258    4.064431
 ---------------------------------------------------------------------
                    Distance matrix (angstroms):
                    1          2          3          4          5
     1  C    0.000000
     2  C    1.401400   0.000000
     3  C    2.427296   1.401400   0.000000
     4  C    2.802800   2.427296   1.401400   0.000000
     5  C    2.427296   2.802800   2.427296   1.401400   0.000000
     6  C    1.401400   2.427296   2.802800   2.427296   1.401400
     7  H    1.070000   2.146700   3.396345   3.872800   3.396345
     8  H    2.146700   1.070000   2.146700   3.396345   3.872800
     9  H    3.872800   3.396345   2.146700   1.070000   2.146700
    10  H    3.396345   3.872800   3.396345   2.146700   1.070000
    11  H    2.146700   3.396345   3.872800   3.396345   2.146700
    12  N    3.772644   2.486942   1.470000   2.486942   3.772644
    13  C    4.629609   3.232822   2.672971   3.849748   5.079636
    14  H    5.093093   3.863637   2.686050   3.242521   4.639596
    15  O    4.781902   3.434815   3.452329   4.807060   5.846063
    16  O    5.896012   4.544038   3.637532   4.464267   5.834754
    17  C    6.928940   5.586288   4.719127   5.489744   6.851342
    18  C    7.360968   6.126937   5.112230   5.601331   6.929603
    19  C    7.794276   6.415052   5.761512   6.695892   8.027005
    20  C    8.549739   7.336102   6.397225   6.878242   8.160261
    21  H    6.971376   5.838583   4.683740   4.929178   6.229593
    22  C    8.925520   7.578386   6.927093   7.795530   9.110613
    23  H    7.757636   6.360943   5.864137   6.930650   8.231235
    24  C    9.264911   7.985280   7.200651   7.874510   9.169613
    25  H    9.052936   7.924486   6.929589   7.238720   8.459151
    26  H    9.671425   8.316852   7.776239   8.725605  10.025100
    27  H   10.218800   8.963146   8.202771   8.849789  10.119518
                    6          7          8          9         10
     6  C    0.000000
     7  H    2.146700   0.000000
     8  H    3.396345   2.471400   0.000000
     9  H    3.396345   4.942800   4.280590   0.000000
    10  H    2.146700   4.280590   4.942800   2.471400   0.000000
    11  H    1.070000   2.471400   4.280590   4.280590   2.471400
    12  N    4.272800   4.631321   2.693767   2.693767   4.631321
    13  C    5.395282   5.301100   2.955402   4.054624   5.983914
    14  H    5.407280   5.997700   4.068496   2.961237   5.309301
    15  O    5.835738   5.188293   2.720038   5.229131   6.845699
    16  O    6.439021   6.676048   4.435997   4.290782   6.580452
    17  C    7.475115   7.679668   5.416991   5.240038   7.555892
    18  C    7.708689   8.187510   6.138598   5.177957   7.494275
    19  C    8.508272   8.424408   6.034023   6.550027   8.801367
    20  C    8.915367   9.332026   7.286058   6.450530   8.695366
    21  H    7.138591   7.875407   6.035852   4.377516   6.689780
    22  C    9.615123   9.540547   7.198173   7.596114   9.844252
    23  H    8.592248   8.304340   5.846932   6.894966   9.072817
    24  C    9.797813   9.953898   7.755792   7.553423   9.797039
    25  H    9.291692   9.868287   7.974789   6.727512   8.890739
    26  H   10.450013  10.213869   7.832774   8.581220  10.798522
    27  H   10.745102  10.887317   8.721107   8.514503  10.722534
                   11         12         13         14         15
    11  H    0.000000
    12  N    5.342800   0.000000
    13  C    6.452757   1.380600   0.000000
    14  H    6.464551   1.394605   1.809280   0.000000
    15  O    6.830145   2.566931   1.430000   3.238979   0.000000
    16  O    7.508778   2.169575   1.532190   1.343456   2.705615
    17  C    8.535289   3.305304   2.585899   2.421226   3.435915
    18  C    8.733626   3.867385   3.567435   2.847012   4.566009
    19  C    9.565457   4.349583   3.291122   3.677956   3.617995
    20  C    9.917061   5.194434   4.786536   4.244248   5.583525
    21  H    8.135285   3.605148   3.702160   2.529221   4.900173
    22  C   10.656916   5.562765   4.584302   4.841025   4.839132
    23  H    9.645038   4.470406   3.219305   3.994818   3.213924
    24  C   10.816420   5.914050   5.201495   5.067412   5.697380
    25  H   10.252176   5.848443   5.627280   4.885716   6.498010
    26  H   11.486992   6.418077   5.322050   5.782027   5.342447
    27  H   11.746966   6.949935   6.243029   6.114545   6.670020
                   16         17         18         19         20
    16  O    0.000000
    17  C    1.430000   0.000000
    18  C    2.452106   1.401400   0.000000
    19  C    2.452106   1.401400   2.427296   0.000000
    20  C    3.734792   2.427296   1.401400   2.802800   0.000000
    21  H    2.669667   2.146700   1.070000   3.396345   2.146700
    22  C    3.734792   2.427296   2.802800   1.401400   2.427296
    23  H    2.669667   2.146700   3.396345   1.070000   3.872800
    24  C    4.232800   2.802800   2.427296   2.427296   1.401400
    25  H    4.595886   3.396345   2.146700   3.872800   1.070000
    26  H    4.595886   3.396345   3.872800   2.146700   3.396345
    27  H    5.302800   3.872800   3.396345   3.396345   2.146700
                   21         22         23         24         25
    21  H    0.000000
    22  C    3.872800   0.000000
    23  H    4.280590   2.146700   0.000000
    24  C    3.396345   1.401400   3.396345   0.000000
    25  H    2.471400   3.396345   4.942800   2.146700   0.000000
    26  H    4.942800   1.070000   2.471400   2.146700   4.280590
    27  H    4.280590   2.146700   4.280590   1.070000   2.471400
                   26         27
    26  H    0.000000
    27  H    2.471400   0.000000
 Symmetry turned off by external request.
 Stoichiometry    C13H11NO2
 Framework group  C1[X(C13H11NO2)]
 Deg. of freedom    75
 Full point group                 C1      NOp   1
 Rotational constants (GHZ):           1.4067203           0.2189671           0.2002935
 Leave Link  202 at Tue May 28 16:55:03 2024, MaxMem=  7516192768 cpu:               0.3 elap:               0.0
 (Enter /software/gaussian/g16-c01/avx2/g16/l301.exe)
 Standard basis: 6-31G(d) (6D, 7F)
 Ernie: Thresh=  0.10000D-02 Tol=  0.10000D-05 Strict=F.
   262 basis functions,   492 primitive gaussians,   262 cartesian basis functions
    56 alpha electrons       56 beta electrons
       nuclear repulsion energy       948.2531413841 Hartrees.
 IExCor= 4639 DFT=T Ex+Corr=wB97XD ExCW=0 ScaHFX=  1.000000
 ScaDFX=  1.000000  1.000000  1.000000  1.000000 ScalE2=  1.000000  1.000000
 IRadAn=      5 IRanWt=     -1 IRanGd=            0 ICorTp=0 IEmpDi=121
 HFx  wShort=  0.000000 wLong=  0.200000 cFull=  0.222036 cShort=  0.000000 cLong=  0.777964
 DFx  wShort=  0.000000 wLong=  0.200000 cFull=  0.000000 cShort=  0.000000 cLong=  1.000000
 NAtoms=   27 NActive=   27 NUniq=   27 SFac= 1.00D+00 NAtFMM=   60 NAOKFM=F Big=F
 Integral buffers will be    131072 words long.
 Raffenetti 2 integral format.
 Two-electron integral symmetry is turned off.
 R6Disp:  Grimme-D2 Dispersion energy=       -0.0143196237 Hartrees.
 Nuclear repulsion after empirical dispersion term =      948.2388217604 Hartrees.
 Leave Link  301 at Tue May 28 16:55:04 2024, MaxMem=  7516192768 cpu:               1.3 elap:               0.1
 (Enter /software/gaussian/g16-c01/avx2/g16/l302.exe)
 NPDir=0 NMtPBC=     1 NCelOv=     1 NCel=       1 NClECP=     1 NCelD=      1
         NCelK=      1 NCelE2=     1 NClLst=     1 CellRange=     0.0.
 One-electron integrals computed using PRISM.
 NBasis=   262 RedAO= T EigKep=  4.70D-04  NBF=   262
 NBsUse=   262 1.00D-06 EigRej= -1.00D+00 NBFU=   262
 Precomputing XC quadrature grid using
 IXCGrd= 4 IRadAn=           5 IRanWt=          -1 IRanGd=           0 AccXCQ= 0.00D+00.
 Generated NRdTot=       0 NPtTot=           0 NUsed=           0 NTot=          32
 NSgBfM=   260   260   260   260   260 MxSgAt=    27 MxSgA2=    27.
 Leave Link  302 at Tue May 28 16:55:05 2024, MaxMem=  7516192768 cpu:               5.6 elap:               0.3
 (Enter /software/gaussian/g16-c01/avx2/g16/l303.exe)
 DipDrv:  MaxL=1.
 Leave Link  303 at Tue May 28 16:55:06 2024, MaxMem=  7516192768 cpu:               0.6 elap:               0.0
 (Enter /software/gaussian/g16-c01/avx2/g16/l401.exe)
 ExpMin= 1.61D-01 ExpMax= 5.48D+03 ExpMxC= 8.25D+02 IAcc=3 IRadAn=         5 AccDes= 0.00D+00
 Harris functional with IExCor= 4639 and IRadAn=       5 diagonalized for initial guess.
 HarFok:  IExCor= 4639 AccDes= 0.00D+00 IRadAn=         5 IDoV= 1 UseB2=F ITyADJ=14
 ICtDFT=  3500011 ScaDFX=  1.000000  1.000000  1.000000  1.000000
 FoFCou: FMM=F IPFlag=           0 FMFlag=      100000 FMFlg1=           0
         NFxFlg=           0 DoJE=T BraDBF=F KetDBF=T FulRan=T
         wScrn=  0.000000 ICntrl=       500 IOpCl=  0 I1Cent=   200000004 NGrid=           0
         NMat0=    1 NMatS0=      1 NMatT0=    0 NMatD0=    1 NMtDS0=    0 NMtDT0=    0
 Symmetry not used in FoFCou.
 Harris En= -676.779977364646    
 JPrj=0 DoOrth=F DoCkMO=F.
 Leave Link  401 at Tue May 28 16:55:07 2024, MaxMem=  7516192768 cpu:              15.0 elap:               0.7
 (Enter /software/gaussian/g16-c01/avx2/g16/l502.exe)
 Two-electron integral symmetry not used.
 Closed shell SCF:
 Using DIIS extrapolation, IDIIS=  1040.
 NGot=  7516192768 LenX=  7516046258 LenY=  7515977173
 Requested convergence on RMS density matrix=1.00D-08 within 128 cycles.
 Requested convergence on MAX density matrix=1.00D-06.
 Requested convergence on             energy=1.00D-06.
 No special actions if energy rises.
 Fock matrices will be formed incrementally for  20 cycles.
 Integral accuracy reduced to 1.0D-05 until final iterations.

 Cycle   1  Pass 0  IDiag  1:
 FoFJK:  IHMeth= 1 ICntrl=       0 DoSepK=T KAlg= 0 I1Cent=           0 FoldK=F
 IRaf=         1 NMat=       1 IRICut=       1 DoRegI=T DoRafI=F ISym2E= 0 IDoP0=0 IntGTp=1.
 FoFCou: FMM=F IPFlag=           0 FMFlag=      100000 FMFlg1=           0
         NFxFlg=           0 DoJE=T BraDBF=F KetDBF=F FulRan=T
         wScrn=  0.000000 ICntrl=       500 IOpCl=  0 I1Cent=           0 NGrid=           0
         NMat0=    1 NMatS0=      1 NMatT0=    0 NMatD0=    1 NMtDS0=    0 NMtDT0=    0
 Symmetry not used in FoFCou.
 E= -706.528519102849    
 DIIS: error= 7.72D-02 at cycle   1 NSaved=   1.
 NSaved= 1 IEnMin= 1 EnMin= -706.528519102849     IErMin= 1 ErrMin= 7.72D-02
 ErrMax= 7.72D-02  0.00D+00 EMaxC= 1.00D-01 BMatC= 7.79D-01 BMatP= 7.79D-01
 IDIUse=3 WtCom= 2.28D-01 WtEn= 7.72D-01
 Coeff-Com:  0.100D+01
 Coeff-En:   0.100D+01
 Coeff:      0.100D+01
 Gap=     0.455 Goal=   None    Shift=    0.000
 GapD=    0.455 DampG=2.000 DampE=0.500 DampFc=1.0000 IDamp=-1.
 RMSDP=4.15D-03 MaxDP=1.51D-01              OVMax= 1.69D-01

 Cycle   2  Pass 0  IDiag  1:
 RMSU=  4.15D-03    CP:  9.98D-01
 E= -706.482341278897     Delta-E=        0.046177823951 Rises=F Damp=F
 DIIS: error= 5.34D-02 at cycle   2 NSaved=   2.
 NSaved= 2 IEnMin= 1 EnMin= -706.528519102849     IErMin= 2 ErrMin= 5.34D-02
 ErrMax= 5.34D-02  0.00D+00 EMaxC= 1.00D-01 BMatC= 4.11D-01 BMatP= 7.79D-01
 IDIUse=3 WtCom= 4.66D-01 WtEn= 5.34D-01
 Coeff-Com:  0.393D+00 0.607D+00
 Coeff-En:   0.540D+00 0.460D+00
 Coeff:      0.472D+00 0.528D+00
 Gap=     0.463 Goal=   None    Shift=    0.000
 RMSDP=2.57D-03 MaxDP=1.22D-01 DE= 4.62D-02 OVMax= 1.58D-01

 Cycle   3  Pass 0  IDiag  1:
 RMSU=  1.56D-03    CP:  1.00D+00  5.07D-01
 E= -706.765148016117     Delta-E=       -0.282806737220 Rises=F Damp=F
 DIIS: error= 2.93D-02 at cycle   3 NSaved=   3.
 NSaved= 3 IEnMin= 3 EnMin= -706.765148016117     IErMin= 3 ErrMin= 2.93D-02
 ErrMax= 2.93D-02  0.00D+00 EMaxC= 1.00D-01 BMatC= 7.49D-02 BMatP= 4.11D-01
 IDIUse=3 WtCom= 7.07D-01 WtEn= 2.93D-01
 Coeff-Com:  0.652D-01 0.289D+00 0.645D+00
 Coeff-En:   0.000D+00 0.130D+00 0.870D+00
 Coeff:      0.461D-01 0.243D+00 0.711D+00
 Gap=     0.335 Goal=   None    Shift=    0.000
 RMSDP=1.16D-03 MaxDP=8.54D-02 DE=-2.83D-01 OVMax= 9.35D-02

 Cycle   4  Pass 0  IDiag  1:
 RMSU=  7.74D-04    CP:  1.00D+00  6.25D-01  5.42D-01
 E= -706.801588887767     Delta-E=       -0.036440871650 Rises=F Damp=F
 DIIS: error= 1.68D-02 at cycle   4 NSaved=   4.
 NSaved= 4 IEnMin= 4 EnMin= -706.801588887767     IErMin= 4 ErrMin= 1.68D-02
 ErrMax= 1.68D-02  0.00D+00 EMaxC= 1.00D-01 BMatC= 2.84D-02 BMatP= 7.49D-02
 IDIUse=3 WtCom= 8.32D-01 WtEn= 1.68D-01
 Coeff-Com:  0.218D-02 0.899D-01 0.430D+00 0.478D+00
 Coeff-En:   0.000D+00 0.000D+00 0.296D+00 0.704D+00
 Coeff:      0.181D-02 0.748D-01 0.408D+00 0.516D+00
 Gap=     0.338 Goal=   None    Shift=    0.000
 RMSDP=5.47D-04 MaxDP=4.21D-02 DE=-3.64D-02 OVMax= 4.45D-02

 Cycle   5  Pass 0  IDiag  1:
 RMSU=  1.93D-04    CP:  1.00D+00  6.15D-01  7.36D-01  4.71D-01
 E= -706.822400502161     Delta-E=       -0.020811614395 Rises=F Damp=F
 DIIS: error= 2.81D-03 at cycle   5 NSaved=   5.
 NSaved= 5 IEnMin= 5 EnMin= -706.822400502161     IErMin= 5 ErrMin= 2.81D-03
 ErrMax= 2.81D-03  0.00D+00 EMaxC= 1.00D-01 BMatC= 1.12D-03 BMatP= 2.84D-02
 IDIUse=3 WtCom= 9.72D-01 WtEn= 2.81D-02
 Coeff-Com: -0.159D-02 0.145D-01 0.144D+00 0.261D+00 0.582D+00
 Coeff-En:   0.000D+00 0.000D+00 0.000D+00 0.000D+00 0.100D+01
 Coeff:     -0.155D-02 0.141D-01 0.140D+00 0.253D+00 0.594D+00
 Gap=     0.325 Goal=   None    Shift=    0.000
 RMSDP=1.13D-04 MaxDP=6.05D-03 DE=-2.08D-02 OVMax= 8.12D-03

 Cycle   6  Pass 0  IDiag  1:
 RMSU=  8.21D-05    CP:  1.00D+00  6.16D-01  7.32D-01  5.50D-01  7.54D-01
 E= -706.823204421588     Delta-E=       -0.000803919427 Rises=F Damp=F
 DIIS: error= 4.34D-04 at cycle   6 NSaved=   6.
 NSaved= 6 IEnMin= 6 EnMin= -706.823204421588     IErMin= 6 ErrMin= 4.34D-04
 ErrMax= 4.34D-04  0.00D+00 EMaxC= 1.00D-01 BMatC= 1.08D-04 BMatP= 1.12D-03
 IDIUse=3 WtCom= 9.96D-01 WtEn= 4.34D-03
 Coeff-Com: -0.103D-02-0.116D-01-0.123D-01 0.396D-01 0.311D+00 0.675D+00
 Coeff-En:   0.000D+00 0.000D+00 0.000D+00 0.000D+00 0.000D+00 0.100D+01
 Coeff:     -0.103D-02-0.116D-01-0.123D-01 0.394D-01 0.309D+00 0.676D+00
 Gap=     0.326 Goal=   None    Shift=    0.000
 RMSDP=4.29D-05 MaxDP=1.97D-03 DE=-8.04D-04 OVMax= 2.86D-03

 Cycle   7  Pass 0  IDiag  1:
 RMSU=  2.52D-05    CP:  1.00D+00  6.15D-01  7.37D-01  5.67D-01  8.91D-01
                    CP:  8.13D-01
 E= -706.823310645022     Delta-E=       -0.000106223434 Rises=F Damp=F
 DIIS: error= 1.59D-04 at cycle   7 NSaved=   7.
 NSaved= 7 IEnMin= 7 EnMin= -706.823310645022     IErMin= 7 ErrMin= 1.59D-04
 ErrMax= 1.59D-04  0.00D+00 EMaxC= 1.00D-01 BMatC= 8.11D-06 BMatP= 1.08D-04
 IDIUse=3 WtCom= 9.98D-01 WtEn= 1.59D-03
 Coeff-Com: -0.307D-03-0.696D-02-0.171D-01-0.159D-02 0.941D-01 0.302D+00
 Coeff-Com:  0.630D+00
 Coeff-En:   0.000D+00 0.000D+00 0.000D+00 0.000D+00 0.000D+00 0.000D+00
 Coeff-En:   0.100D+01
 Coeff:     -0.307D-03-0.695D-02-0.171D-01-0.158D-02 0.940D-01 0.302D+00
 Coeff:      0.630D+00
 Gap=     0.327 Goal=   None    Shift=    0.000
 RMSDP=1.42D-05 MaxDP=7.02D-04 DE=-1.06D-04 OVMax= 1.48D-03

 Cycle   8  Pass 0  IDiag  1:
 RMSU=  1.08D-05    CP:  1.00D+00  6.14D-01  7.38D-01  5.71D-01  9.11D-01
                    CP:  9.03D-01  9.54D-01
 E= -706.823320608245     Delta-E=       -0.000009963223 Rises=F Damp=F
 DIIS: error= 7.60D-05 at cycle   8 NSaved=   8.
 NSaved= 8 IEnMin= 8 EnMin= -706.823320608245     IErMin= 8 ErrMin= 7.60D-05
 ErrMax= 7.60D-05  0.00D+00 EMaxC= 1.00D-01 BMatC= 1.12D-06 BMatP= 8.11D-06
 IDIUse=1 WtCom= 1.00D+00 WtEn= 0.00D+00
 Coeff-Com:  0.818D-04-0.597D-03-0.488D-02-0.979D-02-0.353D-01-0.402D-01
 Coeff-Com:  0.230D+00 0.861D+00
 Coeff:      0.818D-04-0.597D-03-0.488D-02-0.979D-02-0.353D-01-0.402D-01
 Coeff:      0.230D+00 0.861D+00
 Gap=     0.327 Goal=   None    Shift=    0.000
 RMSDP=8.64D-06 MaxDP=3.03D-04 DE=-9.96D-06 OVMax= 5.96D-04

 Initial convergence to 1.0D-05 achieved.  Increase integral accuracy.
 Cycle   9  Pass 1  IDiag  1:
 E= -706.823337945056     Delta-E=       -0.000017336811 Rises=F Damp=F
 DIIS: error= 2.38D-05 at cycle   1 NSaved=   1.
 NSaved= 1 IEnMin= 1 EnMin= -706.823337945056     IErMin= 1 ErrMin= 2.38D-05
 ErrMax= 2.38D-05  0.00D+00 EMaxC= 1.00D-01 BMatC= 4.95D-07 BMatP= 4.95D-07
 IDIUse=1 WtCom= 1.00D+00 WtEn= 0.00D+00
 Coeff-Com:  0.100D+01
 Coeff:      0.100D+01
 Gap=     0.327 Goal=   None    Shift=    0.000
 RMSDP=8.64D-06 MaxDP=3.03D-04 DE=-1.73D-05 OVMax= 2.49D-04

 Cycle  10  Pass 1  IDiag  1:
 RMSU=  1.70D-05    CP:  1.00D+00
 E= -706.823338417674     Delta-E=       -0.000000472618 Rises=F Damp=F
 DIIS: error= 2.25D-05 at cycle   2 NSaved=   2.
 NSaved= 2 IEnMin= 2 EnMin= -706.823338417674     IErMin= 2 ErrMin= 2.25D-05
 ErrMax= 2.25D-05  0.00D+00 EMaxC= 1.00D-01 BMatC= 9.94D-08 BMatP= 4.95D-07
 IDIUse=1 WtCom= 1.00D+00 WtEn= 0.00D+00
 Coeff-Com:  0.200D+00 0.800D+00
 Coeff:      0.200D+00 0.800D+00
 Gap=     0.327 Goal=   None    Shift=    0.000
 RMSDP=2.22D-06 MaxDP=9.31D-05 DE=-4.73D-07 OVMax= 1.44D-04

 Cycle  11  Pass 1  IDiag  1:
 RMSU=  2.14D-06    CP:  1.00D+00  1.04D+00
 E= -706.823338448269     Delta-E=       -0.000000030595 Rises=F Damp=F
 DIIS: error= 2.96D-05 at cycle   3 NSaved=   3.
 NSaved= 3 IEnMin= 3 EnMin= -706.823338448269     IErMin= 2 ErrMin= 2.25D-05
 ErrMax= 2.96D-05  0.00D+00 EMaxC= 1.00D-01 BMatC= 1.02D-07 BMatP= 9.94D-08
 IDIUse=1 WtCom= 1.00D+00 WtEn= 0.00D+00
 Coeff-Com: -0.321D-01 0.510D+00 0.522D+00
 Coeff:     -0.321D-01 0.510D+00 0.522D+00
 Gap=     0.327 Goal=   None    Shift=    0.000
 RMSDP=1.17D-06 MaxDP=7.15D-05 DE=-3.06D-08 OVMax= 1.06D-04

 Cycle  12  Pass 1  IDiag  1:
 RMSU=  8.26D-07    CP:  1.00D+00  1.05D+00  6.43D-01
 E= -706.823338535808     Delta-E=       -0.000000087539 Rises=F Damp=F
 DIIS: error= 5.77D-06 at cycle   4 NSaved=   4.
 NSaved= 4 IEnMin= 4 EnMin= -706.823338535808     IErMin= 4 ErrMin= 5.77D-06
 ErrMax= 5.77D-06  0.00D+00 EMaxC= 1.00D-01 BMatC= 6.57D-09 BMatP= 9.94D-08
 IDIUse=1 WtCom= 1.00D+00 WtEn= 0.00D+00
 Coeff-Com: -0.366D-01 0.194D+00 0.265D+00 0.578D+00
 Coeff:     -0.366D-01 0.194D+00 0.265D+00 0.578D+00
 Gap=     0.327 Goal=   None    Shift=    0.000
 RMSDP=3.47D-07 MaxDP=1.51D-05 DE=-8.75D-08 OVMax= 2.35D-05

 Cycle  13  Pass 1  IDiag  1:
 RMSU=  3.22D-07    CP:  1.00D+00  1.06D+00  6.93D-01  1.04D+00
 E= -706.823338542804     Delta-E=       -0.000000006996 Rises=F Damp=F
 DIIS: error= 2.46D-06 at cycle   5 NSaved=   5.
 NSaved= 5 IEnMin= 5 EnMin= -706.823338542804     IErMin= 5 ErrMin= 2.46D-06
 ErrMax= 2.46D-06  0.00D+00 EMaxC= 1.00D-01 BMatC= 6.96D-10 BMatP= 6.57D-09
 IDIUse=1 WtCom= 1.00D+00 WtEn= 0.00D+00
 Coeff-Com: -0.478D-02-0.501D-01-0.361D-01 0.166D+00 0.925D+00
 Coeff:     -0.478D-02-0.501D-01-0.361D-01 0.166D+00 0.925D+00
 Gap=     0.327 Goal=   None    Shift=    0.000
 RMSDP=2.48D-07 MaxDP=1.21D-05 DE=-7.00D-09 OVMax= 2.00D-05

 Cycle  14  Pass 1  IDiag  1:
 RMSU=  1.16D-07    CP:  1.00D+00  1.06D+00  7.29D-01  1.27D+00  1.20D+00
 E= -706.823338544424     Delta-E=       -0.000000001620 Rises=F Damp=F
 DIIS: error= 7.61D-07 at cycle   6 NSaved=   6.
 NSaved= 6 IEnMin= 6 EnMin= -706.823338544424     IErMin= 6 ErrMin= 7.61D-07
 ErrMax= 7.61D-07  0.00D+00 EMaxC= 1.00D-01 BMatC= 2.29D-10 BMatP= 6.96D-10
 IDIUse=1 WtCom= 1.00D+00 WtEn= 0.00D+00
 Coeff-Com:  0.574D-02-0.641D-01-0.730D-01-0.441D-01 0.478D+00 0.697D+00
 Coeff:      0.574D-02-0.641D-01-0.730D-01-0.441D-01 0.478D+00 0.697D+00
 Gap=     0.327 Goal=   None    Shift=    0.000
 RMSDP=1.11D-07 MaxDP=5.38D-06 DE=-1.62D-09 OVMax= 9.82D-06

 Cycle  15  Pass 1  IDiag  1:
 RMSU=  4.99D-08    CP:  1.00D+00  1.06D+00  7.42D-01  1.37D+00  1.37D+00
                    CP:  8.50D-01
 E= -706.823338544791     Delta-E=       -0.000000000367 Rises=F Damp=F
 DIIS: error= 2.24D-07 at cycle   7 NSaved=   7.
 NSaved= 7 IEnMin= 7 EnMin= -706.823338544791     IErMin= 7 ErrMin= 2.24D-07
 ErrMax= 2.24D-07  0.00D+00 EMaxC= 1.00D-01 BMatC= 2.31D-11 BMatP= 2.29D-10
 IDIUse=1 WtCom= 1.00D+00 WtEn= 0.00D+00
 Coeff-Com:  0.302D-02-0.238D-01-0.291D-01-0.431D-01 0.111D+00 0.300D+00
 Coeff-Com:  0.681D+00
 Coeff:      0.302D-02-0.238D-01-0.291D-01-0.431D-01 0.111D+00 0.300D+00
 Coeff:      0.681D+00
 Gap=     0.327 Goal=   None    Shift=    0.000
 RMSDP=3.20D-08 MaxDP=1.36D-06 DE=-3.67D-10 OVMax= 2.32D-06

 Cycle  16  Pass 1  IDiag  1:
 RMSU=  1.78D-08    CP:  1.00D+00  1.06D+00  7.47D-01  1.39D+00  1.41D+00
                    CP:  9.47D-01  9.96D-01
 E= -706.823338544814     Delta-E=       -0.000000000024 Rises=F Damp=F
 DIIS: error= 1.08D-07 at cycle   8 NSaved=   8.
 NSaved= 8 IEnMin= 8 EnMin= -706.823338544814     IErMin= 8 ErrMin= 1.08D-07
 ErrMax= 1.08D-07  0.00D+00 EMaxC= 1.00D-01 BMatC= 4.39D-12 BMatP= 2.31D-11
 IDIUse=1 WtCom= 1.00D+00 WtEn= 0.00D+00
 Coeff-Com:  0.324D-03 0.133D-02 0.583D-03-0.124D-01-0.397D-01 0.643D-02
 Coeff-Com:  0.327D+00 0.717D+00
 Coeff:      0.324D-03 0.133D-02 0.583D-03-0.124D-01-0.397D-01 0.643D-02
 Coeff:      0.327D+00 0.717D+00
 Gap=     0.327 Goal=   None    Shift=    0.000
 RMSDP=1.29D-08 MaxDP=6.10D-07 DE=-2.36D-11 OVMax= 1.06D-06

 Cycle  17  Pass 1  IDiag  1:
 RMSU=  7.37D-09    CP:  1.00D+00  1.06D+00  7.48D-01  1.39D+00  1.43D+00
                    CP:  9.74D-01  1.12D+00  9.11D-01
 E= -706.823338544818     Delta-E=       -0.000000000003 Rises=F Damp=F
 DIIS: error= 2.65D-08 at cycle   9 NSaved=   9.
 NSaved= 9 IEnMin= 9 EnMin= -706.823338544818     IErMin= 9 ErrMin= 2.65D-08
 ErrMax= 2.65D-08  0.00D+00 EMaxC= 1.00D-01 BMatC= 4.72D-13 BMatP= 4.39D-12
 IDIUse=1 WtCom= 1.00D+00 WtEn= 0.00D+00
 Coeff-Com: -0.291D-03 0.388D-02 0.427D-02 0.120D-02-0.295D-01-0.385D-01
 Coeff-Com:  0.397D-01 0.290D+00 0.729D+00
 Coeff:     -0.291D-03 0.388D-02 0.427D-02 0.120D-02-0.295D-01-0.385D-01
 Coeff:      0.397D-01 0.290D+00 0.729D+00
 Gap=     0.327 Goal=   None    Shift=    0.000
 RMSDP=4.16D-09 MaxDP=1.27D-07 DE=-3.41D-12 OVMax= 3.24D-07

 SCF Done:  E(RwB97XD) =  -706.823338545     A.U. after   17 cycles
            NFock= 17  Conv=0.42D-08     -V/T= 2.0109
 KE= 6.992240427926D+02 PE=-3.539434999145D+03 EE= 1.185148796047D+03
 Leave Link  502 at Tue May 28 16:55:21 2024, MaxMem=  7516192768 cpu:             316.3 elap:              13.2
 (Enter /software/gaussian/g16-c01/avx2/g16/l601.exe)
 Copying SCF densities to generalized density rwf, IOpCl= 0 IROHF=0.

 **********************************************************************

            Population analysis using the SCF Density.

 **********************************************************************

 Alpha  occ. eigenvalues --  -19.37037 -19.25892 -14.49737 -10.48297 -10.39138
 Alpha  occ. eigenvalues --  -10.35920 -10.32911 -10.32485 -10.32285 -10.32224
 Alpha  occ. eigenvalues --  -10.31967 -10.30947 -10.30775 -10.30464 -10.30214
 Alpha  occ. eigenvalues --  -10.30122  -1.20468  -1.04545  -0.99991  -0.97074
 Alpha  occ. eigenvalues --   -0.94525  -0.86941  -0.86646  -0.84761  -0.83974
 Alpha  occ. eigenvalues --   -0.75299  -0.72837  -0.70880  -0.70186  -0.66622
 Alpha  occ. eigenvalues --   -0.63433  -0.62207  -0.60400  -0.58276  -0.56566
 Alpha  occ. eigenvalues --   -0.55450  -0.54527  -0.53360  -0.52858  -0.52636
 Alpha  occ. eigenvalues --   -0.50931  -0.48667  -0.47803  -0.47054  -0.46094
 Alpha  occ. eigenvalues --   -0.45229  -0.44709  -0.43384  -0.42693  -0.40253
 Alpha  occ. eigenvalues --   -0.36301  -0.34681  -0.34142  -0.33255  -0.32806
 Alpha  occ. eigenvalues --   -0.29287
 Alpha virt. eigenvalues --    0.03399   0.04611   0.04839   0.06629   0.10694
 Alpha virt. eigenvalues --    0.11208   0.11896   0.16452   0.17757   0.22027
 Alpha virt. eigenvalues --    0.22524   0.22645   0.23490   0.24384   0.24890
 Alpha virt. eigenvalues --    0.25912   0.26329   0.26523   0.27240   0.27923
 Alpha virt. eigenvalues --    0.29981   0.30876   0.35472   0.36558   0.37634
 Alpha virt. eigenvalues --    0.38218   0.39168   0.40074   0.40324   0.42768
 Alpha virt. eigenvalues --    0.46095   0.53327   0.55684   0.56777   0.58044
 Alpha virt. eigenvalues --    0.58253   0.60113   0.60835   0.61956   0.62952
 Alpha virt. eigenvalues --    0.63121   0.63750   0.64934   0.65520   0.66097
 Alpha virt. eigenvalues --    0.66262   0.66674   0.67720   0.68028   0.68208
 Alpha virt. eigenvalues --    0.68412   0.68588   0.68957   0.69897   0.70152
 Alpha virt. eigenvalues --    0.70522   0.72126   0.73639   0.75203   0.76500
 Alpha virt. eigenvalues --    0.76922   0.82043   0.82688   0.85044   0.87373
 Alpha virt. eigenvalues --    0.89858   0.90751   0.91730   0.92956   0.93208
 Alpha virt. eigenvalues --    0.93906   0.94442   0.95324   0.95656   0.96482
 Alpha virt. eigenvalues --    0.98741   1.00529   1.01067   1.01647   1.02154
 Alpha virt. eigenvalues --    1.03404   1.04739   1.05503   1.06784   1.07585
 Alpha virt. eigenvalues --    1.07887   1.11696   1.14246   1.16513   1.17114
 Alpha virt. eigenvalues --    1.19129   1.21154   1.23158   1.24861   1.25372
 Alpha virt. eigenvalues --    1.26000   1.26380   1.30456   1.30606   1.33145
 Alpha virt. eigenvalues --    1.33960   1.36912   1.40737   1.42196   1.45901
 Alpha virt. eigenvalues --    1.47674   1.49225   1.50369   1.51949   1.53240
 Alpha virt. eigenvalues --    1.54574   1.55011   1.55510   1.56950   1.57138
 Alpha virt. eigenvalues --    1.58686   1.60117   1.62729   1.64014   1.71247
 Alpha virt. eigenvalues --    1.72231   1.75851   1.79315   1.84463   1.85281
 Alpha virt. eigenvalues --    1.86223   1.86851   1.89741   1.91850   1.93428
 Alpha virt. eigenvalues --    1.94359   1.95563   1.96961   1.97634   1.98648
 Alpha virt. eigenvalues --    2.00656   2.01839   2.03686   2.04919   2.05391
 Alpha virt. eigenvalues --    2.06288   2.06853   2.08030   2.12771   2.14696
 Alpha virt. eigenvalues --    2.17887   2.19681   2.20410   2.20614   2.21926
 Alpha virt. eigenvalues --    2.22359   2.23925   2.25660   2.27955   2.30115
 Alpha virt. eigenvalues --    2.33341   2.33845   2.36341   2.37944   2.38203
 Alpha virt. eigenvalues --    2.39488   2.41894   2.45518   2.53131   2.54943
 Alpha virt. eigenvalues --    2.60620   2.62078   2.64691   2.65837   2.67707
 Alpha virt. eigenvalues --    2.69290   2.71007   2.72347   2.73158   2.78783
 Alpha virt. eigenvalues --    2.79335   2.79897   2.80281   2.82083   2.82498
 Alpha virt. eigenvalues --    2.85571   2.89594   2.90561   3.00410   3.07366
 Alpha virt. eigenvalues --    3.14190   3.15687   3.26248   3.47919   3.50543
 Alpha virt. eigenvalues --    4.00166   4.04706   4.16372   4.17410   4.19716
 Alpha virt. eigenvalues --    4.20202   4.21711   4.25207   4.29907   4.41115
 Alpha virt. eigenvalues --    4.41902   4.43093   4.48084   4.52615   4.79976
 Alpha virt. eigenvalues --    4.81235
          Condensed to atoms (all electrons):
               1          2          3          4          5          6
     1  C    4.895230   0.516721  -0.020704  -0.039251  -0.030649   0.548427
     2  C    0.516721   4.975827   0.558010  -0.056242  -0.038559  -0.041816
     3  C   -0.020704   0.558010   4.515413   0.540401  -0.018180  -0.033125
     4  C   -0.039251  -0.056242   0.540401   4.958705   0.537339  -0.042387
     5  C   -0.030649  -0.038559  -0.018180   0.537339   4.868466   0.551490
     6  C    0.548427  -0.041816  -0.033125  -0.042387   0.551490   4.876766
     7  H    0.370719  -0.032845   0.002630   0.000636   0.003694  -0.038264
     8  H   -0.035573   0.353650  -0.028377   0.005151   0.000036   0.003829
     9  H    0.000057   0.005501  -0.041743   0.363315  -0.037496   0.004165
    10  H    0.003805   0.000464   0.002914  -0.035753   0.372067  -0.037097
    11  H   -0.038215   0.003810   0.000508   0.003960  -0.038487   0.372514
    12  N    0.005153  -0.052447   0.239700  -0.050532   0.003593   0.000140
    13  C    0.000279  -0.000840  -0.033447   0.002604  -0.000094   0.000008
    14  H   -0.000023   0.000884  -0.001214  -0.000796   0.000045   0.000001
    15  O    0.000116  -0.002439  -0.000262   0.000044  -0.000001   0.000000
    16  O    0.000001   0.000005   0.003048  -0.000236  -0.000001   0.000000
    17  C   -0.000000  -0.000000  -0.000042   0.000007   0.000000  -0.000000
    18  C    0.000000  -0.000000  -0.000012  -0.000001  -0.000000   0.000000
    19  C   -0.000000  -0.000000  -0.000002  -0.000000   0.000000   0.000000
    20  C    0.000000  -0.000000  -0.000000   0.000000  -0.000000  -0.000000
    21  H   -0.000000  -0.000000   0.000015  -0.000006  -0.000000   0.000000
    22  C   -0.000000   0.000000  -0.000000   0.000000   0.000000  -0.000000
    23  H   -0.000000  -0.000000  -0.000000  -0.000000   0.000000   0.000000
    24  C   -0.000000  -0.000000   0.000000  -0.000000   0.000000   0.000000
    25  H    0.000000   0.000000   0.000000  -0.000000   0.000000   0.000000
    26  H    0.000000   0.000000   0.000000  -0.000000  -0.000000   0.000000
    27  H   -0.000000  -0.000000  -0.000000   0.000000   0.000000  -0.000000
               7          8          9         10         11         12
     1  C    0.370719  -0.035573   0.000057   0.003805  -0.038215   0.005153
     2  C   -0.032845   0.353650   0.005501   0.000464   0.003810  -0.052447
     3  C    0.002630  -0.028377  -0.041743   0.002914   0.000508   0.239700
     4  C    0.000636   0.005151   0.363315  -0.035753   0.003960  -0.050532
     5  C    0.003694   0.000036  -0.037496   0.372067  -0.038487   0.003593
     6  C   -0.038264   0.003829   0.004165  -0.037097   0.372514   0.000140
     7  H    0.523891  -0.003651   0.000013  -0.000149  -0.003882  -0.000098
     8  H   -0.003651   0.489370  -0.000097   0.000009  -0.000118  -0.012763
     9  H    0.000013  -0.000097   0.545862  -0.004469  -0.000136  -0.002377
    10  H   -0.000149   0.000009  -0.004469   0.528695  -0.003908  -0.000073
    11  H   -0.003882  -0.000118  -0.000136  -0.003908   0.534923   0.000003
    12  N   -0.000098  -0.012763  -0.002377  -0.000073   0.000003   7.316695
    13  C   -0.000003   0.004349  -0.000157   0.000001  -0.000000   0.304914
    14  H    0.000000  -0.000012   0.002156  -0.000002  -0.000000   0.213254
    15  O   -0.000001   0.013032   0.000002  -0.000000   0.000000  -0.053232
    16  O   -0.000000   0.000060  -0.000106  -0.000000   0.000000  -0.183969
    17  C    0.000000   0.000001   0.000004   0.000000  -0.000000   0.006339
    18  C   -0.000000  -0.000000  -0.000004   0.000000   0.000000  -0.000624
    19  C    0.000000  -0.000001  -0.000000   0.000000  -0.000000   0.000314
    20  C   -0.000000  -0.000000  -0.000000   0.000000   0.000000  -0.000027
    21  H   -0.000000  -0.000000   0.000008  -0.000000  -0.000000   0.000291
    22  C    0.000000   0.000000   0.000000  -0.000000  -0.000000   0.000003
    23  H   -0.000000  -0.000000  -0.000000   0.000000  -0.000000   0.000061
    24  C   -0.000000   0.000000   0.000000  -0.000000  -0.000000   0.000001
    25  H   -0.000000   0.000000  -0.000000  -0.000000   0.000000   0.000000
    26  H   -0.000000   0.000000  -0.000000  -0.000000   0.000000  -0.000000
    27  H    0.000000  -0.000000   0.000000   0.000000  -0.000000   0.000000
              13         14         15         16         17         18
     1  C    0.000279  -0.000023   0.000116   0.000001  -0.000000   0.000000
     2  C   -0.000840   0.000884  -0.002439   0.000005  -0.000000  -0.000000
     3  C   -0.033447  -0.001214  -0.000262   0.003048  -0.000042  -0.000012
     4  C    0.002604  -0.000796   0.000044  -0.000236   0.000007  -0.000001
     5  C   -0.000094   0.000045  -0.000001  -0.000001   0.000000  -0.000000
     6  C    0.000008   0.000001   0.000000   0.000000  -0.000000   0.000000
     7  H   -0.000003   0.000000  -0.000001  -0.000000   0.000000  -0.000000
     8  H    0.004349  -0.000012   0.013032   0.000060   0.000001  -0.000000
     9  H   -0.000157   0.002156   0.000002  -0.000106   0.000004  -0.000004
    10  H    0.000001  -0.000002  -0.000000  -0.000000   0.000000   0.000000
    11  H   -0.000000  -0.000000   0.000000   0.000000  -0.000000   0.000000
    12  N    0.304914   0.213254  -0.053232  -0.183969   0.006339  -0.000624
    13  C    4.457405  -0.074357   0.424265   0.166971  -0.013480   0.000433
    14  H   -0.074357   0.370281   0.002546   0.059380  -0.003072   0.001093
    15  O    0.424265   0.002546   8.176406  -0.024032  -0.000465   0.000018
    16  O    0.166971   0.059380  -0.024032   8.555327   0.146351  -0.036087
    17  C   -0.013480  -0.003072  -0.000465   0.146351   4.561911   0.544418
    18  C    0.000433   0.001093   0.000018  -0.036087   0.544418   4.962659
    19  C    0.000583   0.000354   0.000897  -0.039733   0.554052  -0.061542
    20  C   -0.000041   0.000087   0.000001   0.003353  -0.022302   0.530032
    21  H   -0.000064   0.002957  -0.000002  -0.003621  -0.039069   0.363145
    22  C    0.000095  -0.000007   0.000022   0.003095  -0.022463  -0.035909
    23  H    0.001832  -0.000076   0.002055  -0.004308  -0.032761   0.004675
    24  C    0.000023   0.000002  -0.000000   0.000050  -0.034503  -0.042378
    25  H   -0.000000  -0.000005  -0.000000  -0.000042   0.002725  -0.033546
    26  H   -0.000004   0.000000  -0.000000  -0.000042   0.002925   0.000448
    27  H    0.000000  -0.000000   0.000000   0.000001   0.000563   0.003942
              19         20         21         22         23         24
     1  C   -0.000000   0.000000  -0.000000  -0.000000  -0.000000  -0.000000
     2  C   -0.000000  -0.000000  -0.000000   0.000000  -0.000000  -0.000000
     3  C   -0.000002  -0.000000   0.000015  -0.000000  -0.000000   0.000000
     4  C   -0.000000   0.000000  -0.000006   0.000000  -0.000000  -0.000000
     5  C    0.000000  -0.000000  -0.000000   0.000000   0.000000   0.000000
     6  C    0.000000  -0.000000   0.000000  -0.000000   0.000000   0.000000
     7  H    0.000000  -0.000000  -0.000000   0.000000  -0.000000  -0.000000
     8  H   -0.000001  -0.000000  -0.000000   0.000000  -0.000000   0.000000
     9  H   -0.000000  -0.000000   0.000008   0.000000  -0.000000   0.000000
    10  H    0.000000   0.000000  -0.000000  -0.000000   0.000000  -0.000000
    11  H   -0.000000   0.000000  -0.000000  -0.000000  -0.000000  -0.000000
    12  N    0.000314  -0.000027   0.000291   0.000003   0.000061   0.000001
    13  C    0.000583  -0.000041  -0.000064   0.000095   0.001832   0.000023
    14  H    0.000354   0.000087   0.002957  -0.000007  -0.000076   0.000002
    15  O    0.000897   0.000001  -0.000002   0.000022   0.002055  -0.000000
    16  O   -0.039733   0.003353  -0.003621   0.003095  -0.004308   0.000050
    17  C    0.554052  -0.022302  -0.039069  -0.022463  -0.032761  -0.034503
    18  C   -0.061542   0.530032   0.363145  -0.035909   0.004675  -0.042378
    19  C    4.931299  -0.035609   0.004845   0.522338   0.365472  -0.039355
    20  C   -0.035609   4.868516  -0.033173  -0.032629   0.000079   0.553366
    21  H    0.004845  -0.033173   0.525568   0.000115  -0.000110   0.003970
    22  C    0.522338  -0.032629   0.000115   4.885900  -0.035026   0.546995
    23  H    0.365472   0.000079  -0.000110  -0.035026   0.487395   0.003894
    24  C   -0.039355   0.553366   0.003970   0.546995   0.003894   4.868527
    25  H    0.000435   0.371651  -0.004197   0.003722   0.000009  -0.035815
    26  H   -0.032627   0.003749   0.000010   0.372117  -0.004049  -0.037102
    27  H    0.003700  -0.037302  -0.000129  -0.037092  -0.000117   0.372889
              25         26         27
     1  C    0.000000   0.000000  -0.000000
     2  C    0.000000   0.000000  -0.000000
     3  C    0.000000   0.000000  -0.000000
     4  C   -0.000000  -0.000000   0.000000
     5  C    0.000000  -0.000000   0.000000
     6  C    0.000000   0.000000  -0.000000
     7  H   -0.000000  -0.000000   0.000000
     8  H    0.000000   0.000000  -0.000000
     9  H   -0.000000  -0.000000   0.000000
    10  H   -0.000000  -0.000000   0.000000
    11  H    0.000000   0.000000  -0.000000
    12  N    0.000000  -0.000000   0.000000
    13  C   -0.000000  -0.000004   0.000000
    14  H   -0.000005   0.000000  -0.000000
    15  O   -0.000000  -0.000000   0.000000
    16  O   -0.000042  -0.000042   0.000001
    17  C    0.002725   0.002925   0.000563
    18  C   -0.033546   0.000448   0.003942
    19  C    0.000435  -0.032627   0.003700
    20  C    0.371651   0.003749  -0.037302
    21  H   -0.004197   0.000010  -0.000129
    22  C    0.003722   0.372117  -0.037092
    23  H    0.000009  -0.004049  -0.000117
    24  C   -0.035815  -0.037102   0.372889
    25  H    0.514331  -0.000144  -0.003714
    26  H   -0.000144   0.510804  -0.003699
    27  H   -0.003714  -0.003699   0.521437
 Mulliken charges:
               1
     1  C   -0.176092
     2  C   -0.189683
     3  C    0.314469
     4  C   -0.186960
     5  C   -0.173264
     6  C   -0.164651
     7  H    0.177311
     8  H    0.211106
     9  H    0.165501
    10  H    0.173496
    11  H    0.169030
    12  N   -0.734319
    13  C    0.758728
    14  H    0.426525
    15  O   -0.538971
    16  O   -0.645465
    17  C    0.348860
    18  C   -0.200758
    19  C   -0.175420
    20  C   -0.169752
    21  H    0.179447
    22  C   -0.171277
    23  H    0.210975
    24  C   -0.160565
    25  H    0.184590
    26  H    0.187615
    27  H    0.179522
 Sum of Mulliken charges =  -0.00000
 Mulliken charges with hydrogens summed into heavy atoms:
               1
     1  C    0.001219
     2  C    0.021423
     3  C    0.314469
     4  C   -0.021459
     5  C    0.000232
     6  C    0.004379
    12  N   -0.734319
    13  C    0.758728
    15  O   -0.538971
    16  O   -0.218940
    17  C    0.348860
    18  C   -0.021310
    19  C    0.035555
    20  C    0.014838
    22  C    0.016338
    24  C    0.018957
 Electronic spatial extent (au):  <R**2>=          10947.3038
 Charge=             -0.0000 electrons
 Dipole moment (field-independent basis, Debye):
    X=              1.0889    Y=              3.6933    Z=              1.8621  Tot=              4.2771
 Quadrupole moment (field-independent basis, Debye-Ang):
   XX=            -63.4384   YY=            -92.1671   ZZ=            -88.3967
   XY=             12.3033   XZ=             15.7795   YZ=              2.8796
 Traceless Quadrupole moment (field-independent basis, Debye-Ang):
   XX=             17.8957   YY=            -10.8331   ZZ=             -7.0626
   XY=             12.3033   XZ=             15.7795   YZ=              2.8796
 Octapole moment (field-independent basis, Debye-Ang**2):
  XXX=           -748.3889  YYY=             96.8527  ZZZ=           -224.5156  XYY=           -346.1546
  XXY=             37.3407  XXZ=             51.9465  XZZ=           -275.6013  YZZ=             35.2960
  YYZ=            -75.5892  XYZ=             12.5384
 Hexadecapole moment (field-independent basis, Debye-Ang**3):
 XXXX=         -10573.9742 YYYY=           -809.2172 ZZZZ=          -1201.5257 XXXY=              4.5755
 XXXZ=           -551.5644 YYYX=            376.8819 YYYZ=            -22.5100 ZZZX=          -1479.3593
 ZZZY=             15.3745 XXYY=          -2238.1307 XXZZ=          -1859.1949 YYZZ=           -327.6086
 XXYZ=             20.9450 YYXZ=           -518.9008 ZZXY=            160.5381
 N-N= 9.482388217604D+02 E-N=-3.539435005922D+03  KE= 6.992240427926D+02
 No NMR shielding tensors so no spin-rotation constants.
 Leave Link  601 at Tue May 28 16:55:21 2024, MaxMem=  7516192768 cpu:               3.0 elap:               0.2
 (Enter /software/gaussian/g16-c01/avx2/g16/l701.exe)
 ... and contract with generalized density number  0.
 Compute integral first derivatives.
 R6Disp: Adding Grimme-D2 dispersion energy 1st derivatives to the gradient.
 Leave Link  701 at Tue May 28 16:55:22 2024, MaxMem=  7516192768 cpu:               3.5 elap:               0.2
 (Enter /software/gaussian/g16-c01/avx2/g16/l702.exe)
 L702 exits ... SP integral derivatives will be done elsewhere.
 Leave Link  702 at Tue May 28 16:55:22 2024, MaxMem=  7516192768 cpu:               0.4 elap:               0.0
 (Enter /software/gaussian/g16-c01/avx2/g16/l703.exe)
 Integral derivatives from FoFJK, PRISM(SPDF).
 Compute integral first derivatives, UseDBF=F ICtDFT=           0.
 Calling FoFJK, ICntrl=      2127 FMM=F ISym2X=0 I1Cent= 0 IOpClX= 0 NMat=1 NMatS=1 NMatT=0.
 FoFJK:  IHMeth= 1 ICntrl=    2127 DoSepK=T KAlg= 0 I1Cent=           0 FoldK=F
 IRaf=         1 NMat=       1 IRICut=       1 DoRegI=T DoRafI=F ISym2E= 0 IDoP0=0 IntGTp=1.
 FoFCou: FMM=F IPFlag=           0 FMFlag=      100000 FMFlg1=         800
         NFxFlg=           0 DoJE=F BraDBF=F KetDBF=F FulRan=T
         wScrn=  0.000000 ICntrl=      2527 IOpCl=  0 I1Cent=           0 NGrid=           0
         NMat0=    1 NMatS0=      1 NMatT0=    0 NMatD0=    1 NMtDS0=    0 NMtDT0=    0
 Symmetry not used in FoFCou.
 Leave Link  703 at Tue May 28 16:55:26 2024, MaxMem=  7516192768 cpu:              76.4 elap:               3.2
 (Enter /software/gaussian/g16-c01/avx2/g16/l716.exe)
 Dipole        = 4.28415909D-01 1.45305562D+00 7.32601909D-01
 -------------------------------------------------------------------
 Center     Atomic                   Forces (Hartrees/Bohr)
 Number     Number              X              Y              Z
 -------------------------------------------------------------------
      1        6           0.012749877    0.021169062    0.000237806
      2        6          -0.011416203    0.008523247   -0.000057739
      3        6           0.032981042   -0.019398867   -0.002343600
      4        6          -0.005035446   -0.010605371    0.000070748
      5        6           0.011516036   -0.021609218    0.000356145
      6        6           0.017382908   -0.000433386    0.000117429
      7        1          -0.004849601   -0.009973935   -0.000001417
      8        1           0.007822843   -0.008453139   -0.000017420
      9        1           0.007022730    0.009199047   -0.000125398
     10        1          -0.004194163    0.010247618   -0.000085705
     11        1          -0.011390665    0.000479329   -0.000122790
     12        7           0.059279494    0.018619444    0.001009759
     13        6          -0.067207780   -0.123873259    0.007677985
     14        1          -0.051253166   -0.029851910    0.000513236
     15        8           0.017873171    0.189972692   -0.000402869
     16        8           0.007838265   -0.023332519    0.009736029
     17        6           0.002429164   -0.010125956    0.006755118
     18        6           0.005628454   -0.011288476   -0.003771350
     19        6          -0.002376683    0.009768239    0.005074711
     20        6           0.002855693   -0.017957041   -0.015451016
     21        1          -0.008735221    0.008015552   -0.001131784
     22        6          -0.016644423    0.018334480   -0.001269149
     23        1          -0.002236523   -0.007880703   -0.007524734
     24        6          -0.012821193   -0.000414029   -0.013816494
     25        1          -0.001364108    0.008665303    0.006352918
     26        1           0.006844665   -0.008291787   -0.000181006
     27        1           0.007300831    0.000495582    0.008400588
 -------------------------------------------------------------------
 Cartesian Forces:  Max     0.189972692 RMS     0.029604842
 Leave Link  716 at Tue May 28 16:55:26 2024, MaxMem=  7516192768 cpu:               0.5 elap:               0.0
 (Enter /software/gaussian/g16-c01/avx2/g16/l103.exe)

 GradGradGradGradGradGradGradGradGradGradGradGradGradGradGradGradGradGrad
 Berny optimization.
 FormGI is forming the generalized inverse of G from B-inverse, IUseBI=4.
 GSVD:  received Info=                   1 from GESDD.
 Internal  Forces:  Max     0.079120742 RMS     0.013339392
 Search for a saddle point.
 Step number   1 out of a maximum of  162
 All quantities printed in internal units (Hartrees-Bohrs-Radians)
 Second derivative matrix not updated -- first step.
 ITU=  0
 LST/QST climbing along tangent vector
     Eigenvalues ---    0.00758   0.00823   0.01042   0.01276   0.01548
     Eigenvalues ---    0.01755   0.02063   0.02070   0.02070   0.02070
     Eigenvalues ---    0.02070   0.02070   0.02070   0.02070   0.02070
     Eigenvalues ---    0.02070   0.02070   0.02070   0.02070   0.02070
     Eigenvalues ---    0.02070   0.02070   0.02689   0.05809   0.09120
     Eigenvalues ---    0.10146   0.11387   0.12969   0.16000   0.16000
     Eigenvalues ---    0.16000   0.16000   0.16000   0.16000   0.16000
     Eigenvalues ---    0.16000   0.16000   0.16000   0.17844   0.20876
     Eigenvalues ---    0.21998   0.22000   0.22000   0.22000   0.22014
     Eigenvalues ---    0.23484   0.23485   0.24991   0.25000   0.27804
     Eigenvalues ---    0.35738   0.37212   0.37230   0.37230   0.37230
     Eigenvalues ---    0.37230   0.37230   0.37230   0.37230   0.37230
     Eigenvalues ---    0.37230   0.39182   0.40989   0.41268   0.41268
     Eigenvalues ---    0.41457   0.41459   0.45388   0.45389   0.45389
     Eigenvalues ---    0.45389   0.45389   0.45389   0.45389   0.45389
     Eigenvalues --- 1000.000001000.000001000.000001000.000001000.00000
     Eigenvalues --- 1000.000001000.000001000.000001000.000001000.00000
     Eigenvalues --- 1000.000001000.000001000.000001000.000001000.00000
     Eigenvalues --- 1000.000001000.000001000.000001000.000001000.00000
     Eigenvalues --- 1000.000001000.000001000.000001000.000001000.00000
     Eigenvalues --- 1000.000001000.000001000.000001000.000001000.00000
     Eigenvalues --- 1000.000001000.000001000.000001000.000001000.00000
     Eigenvalues --- 1000.000001000.000001000.000001000.000001000.00000
     Eigenvalues --- 1000.000001000.000001000.000001000.000001000.00000
     Eigenvalues --- 1000.000001000.000001000.000001000.000001000.00000
     Eigenvalues --- 1000.000001000.000001000.000001000.000001000.00000
     Eigenvalues --- 1000.000001000.000001000.000001000.000001000.00000
     Eigenvalues --- 1000.000001000.000001000.000001000.000001000.00000
     Eigenvalues --- 1000.000001000.000001000.000001000.000001000.00000
     Eigenvalues --- 1000.000001000.000001000.000001000.000001000.00000
     Eigenvalues --- 1000.000001000.00000
 Eigenvectors required to have negative eigenvalues:
                          D22       D19       D20       D17       D21
   1                    0.39839   0.39795   0.39625   0.39581   0.39458
                          D18       A24       D36       D39       D34
   1                    0.39414  -0.16167  -0.09310  -0.07162   0.07048
 Eigenvalue     1 is   7.58D-03 should be less than     0.000000 Eigenvector:
                          D22       D19       D20       D17       D21
   1                    0.39839   0.39795   0.39625   0.39581   0.39458
                          D18       A24       D36       D39       D34
   1                    0.39414  -0.16167  -0.09310  -0.07162   0.07048
 QST in optimization variable space.
 Eigenvectors 1 and  24 swapped, overlap=  1.0000
                        Tangent   TS vect  // Eig F  Eigenval
   1         R1        -0.00095   0.00095  -0.03073   0.05809
   2         R2        -0.00123   0.00123   0.00261   0.00823
   3         R3         0.00790  -0.00790   0.00073   0.01042
   4         R4         0.00398  -0.00398  -0.00018   0.01276
   5         R5         0.00858  -0.00858  -0.00016   0.01548
   6         R6         0.00644  -0.00644  -0.00027   0.01755
   7         R7        -0.00871   0.00871  -0.00082   0.02063
   8         R8        -0.00178   0.00178   0.00004   0.02070
   9         R9         0.00796  -0.00796   0.00010   0.02070
  10         R10       -0.00079   0.00079   0.00003   0.02070
  11         R11        0.00780  -0.00780  -0.00001   0.02070
  12         R12        0.00736  -0.00736   0.00000   0.02070
  13         R13        0.02095  -0.02095  -0.00003   0.02070
  14         R14       -0.29932   0.29932  -0.00002   0.02070
  15         R15        0.01473  -0.01473   0.00006   0.02070
  16         R16        0.20863  -0.20863  -0.00020   0.02070
  17         R17       -0.04462   0.04462  -0.00016   0.02070
  18         R18       -0.03406   0.03406  -0.00001   0.02070
  19         R19        0.22612  -0.22612  -0.00011   0.02070
  20         R20        0.03688  -0.03688   0.00005   0.02070
  21         R21        0.00108  -0.00108   0.00006   0.02070
  22         R22        0.00169  -0.00169   0.00000   0.02070
  23         R23        0.00008  -0.00008  -0.00083   0.02689
  24         R24       -0.00123   0.00123  -0.00051   0.00758
  25         R25        0.00664  -0.00664  -0.01173   0.09120
  26         R26        0.00012  -0.00012  -0.00511   0.10146
  27         R27        0.00768  -0.00768  -0.03274   0.11387
  28         R28        0.00017  -0.00017  -0.03118   0.12969
  29         R29        0.00753  -0.00753   0.00184   0.16000
  30         R30       -0.00100   0.00100   0.00046   0.16000
  31         R31        0.00755  -0.00755   0.00155   0.16000
  32         R32        0.00764  -0.00764  -0.00032   0.16000
  33         A1         0.00226  -0.00226  -0.00022   0.16000
  34         A2        -0.00186   0.00186  -0.00146   0.16000
  35         A3        -0.00040   0.00040   0.00122   0.16000
  36         A4         0.00017  -0.00017  -0.00080   0.16000
  37         A5        -0.00267   0.00267  -0.00032   0.16000
  38         A6         0.00250  -0.00250  -0.00121   0.16000
  39         A7        -0.00362   0.00362  -0.01701   0.17844
  40         A8         0.00636  -0.00636  -0.01832   0.20876
  41         A9        -0.00274   0.00274  -0.00629   0.21998
  42         A10        0.00071  -0.00071   0.00078   0.22000
  43         A11        0.00381  -0.00381   0.00184   0.22000
  44         A12       -0.00451   0.00451   0.00035   0.22000
  45         A13        0.00145  -0.00145  -0.01345   0.22014
  46         A14       -0.00115   0.00115   0.00558   0.23484
  47         A15       -0.00030   0.00030   0.00826   0.23485
  48         A16       -0.00097   0.00097   0.00051   0.24991
  49         A17        0.00074  -0.00074   0.00344   0.25000
  50         A18        0.00023  -0.00023   0.04179   0.27804
  51         A19       -0.08750   0.08750  -0.02643   0.35738
  52         A20       -0.10941   0.10941   0.01698   0.37212
  53         A21       -0.06476   0.06476  -0.00033   0.37230
  54         A22        0.19692  -0.19692  -0.00059   0.37230
  55         A23        0.17067  -0.17067  -0.00061   0.37230
  56         A24       -0.61546   0.61546   0.00096   0.37230
  57         A25        0.03380  -0.03380  -0.00014   0.37230
  58         A26       -0.12923   0.12923  -0.00015   0.37230
  59         A27        0.13687  -0.13687  -0.00003   0.37230
  60         A28        0.09542  -0.09542  -0.00009   0.37230
  61         A29       -0.05971   0.05971   0.00038   0.37230
  62         A30       -0.01548   0.01548   0.01020   0.39182
  63         A31        0.00323  -0.00323  -0.01277   0.40989
  64         A32        0.20580  -0.20580   0.00062   0.41268
  65         A33       -0.05910   0.05910   0.00006   0.41268
  66         A34       -0.01850   0.01850  -0.00229   0.41457
  67         A35        0.01303  -0.01303  -0.00392   0.41459
  68         A36        0.00547  -0.00547  -0.00433   0.45388
  69         A37       -0.00413   0.00413  -0.00872   0.45389
  70         A38        0.00008  -0.00008  -0.00603   0.45389
  71         A39        0.00406  -0.00406  -0.00430   0.45389
  72         A40       -0.00382   0.00382  -0.00089   0.45389
  73         A41        0.00283  -0.00283  -0.00910   0.45389
  74         A42        0.00099  -0.00099  -0.00468   0.45389
  75         A43        0.00029  -0.00029  -0.00755   0.45389
  76         A44       -0.00003   0.00003  -0.000001000.00000
[...]
                   26         27
    26  H    0.000000
    27  H    2.482137   0.000000
 Symmetry turned off by external request.
 Stoichiometry    C13H11NO2
 Framework group  C1[X(C13H11NO2)]
 Deg. of freedom    75
 Full point group                 C1      NOp   1
 Rotational constants (GHZ):           1.4606790           0.2337754           0.2161329
 Leave Link  202 at Tue May 28 17:05:13 2024, MaxMem=  7516192768 cpu:               0.2 elap:               0.0
 (Enter /software/gaussian/g16-c01/avx2/g16/l601.exe)
 Copying SCF densities to generalized density rwf, IOpCl= 0 IROHF=0.

 **********************************************************************

            Population analysis using the SCF Density.

 **********************************************************************

 Alpha  occ. eigenvalues --  -19.32166 -19.31019 -14.48365 -10.47074 -10.36708
 Alpha  occ. eigenvalues --  -10.35214 -10.31087 -10.30972 -10.30926 -10.30702
 Alpha  occ. eigenvalues --  -10.30668 -10.30512 -10.30509 -10.30449 -10.30423
 Alpha  occ. eigenvalues --  -10.30191  -1.21298  -1.16395  -1.05598  -0.96170
 Alpha  occ. eigenvalues --   -0.95200  -0.86340  -0.85409  -0.85044  -0.83447
 Alpha  occ. eigenvalues --   -0.74661  -0.71726  -0.71208  -0.69394  -0.65594
 Alpha  occ. eigenvalues --   -0.63769  -0.60896  -0.59533  -0.58316  -0.56896
 Alpha  occ. eigenvalues --   -0.56770  -0.54598  -0.53814  -0.52490  -0.52246
 Alpha  occ. eigenvalues --   -0.51398  -0.50996  -0.49472  -0.47607  -0.47042
 Alpha  occ. eigenvalues --   -0.45011  -0.44494  -0.44022  -0.42936  -0.41874
 Alpha  occ. eigenvalues --   -0.40214  -0.37841  -0.33427  -0.33160  -0.31329
 Alpha  occ. eigenvalues --   -0.30027
 Alpha virt. eigenvalues --    0.05216   0.06308   0.06324   0.06691   0.11265
 Alpha virt. eigenvalues --    0.13827   0.16957   0.17497   0.17973   0.22610
 Alpha virt. eigenvalues --    0.22933   0.23419   0.24206   0.24677   0.25487
 Alpha virt. eigenvalues --    0.26432   0.26573   0.27203   0.27809   0.29273
 Alpha virt. eigenvalues --    0.32186   0.34050   0.37295   0.37868   0.38193
 Alpha virt. eigenvalues --    0.40384   0.41847   0.42277   0.43268   0.43508
 Alpha virt. eigenvalues --    0.47606   0.53625   0.55695   0.58287   0.59114
 Alpha virt. eigenvalues --    0.60135   0.60862   0.61683   0.62905   0.63458
 Alpha virt. eigenvalues --    0.64351   0.65888   0.67125   0.67187   0.67782
 Alpha virt. eigenvalues --    0.67852   0.68158   0.68474   0.68917   0.69291
 Alpha virt. eigenvalues --    0.69775   0.69912   0.70232   0.70488   0.71236
 Alpha virt. eigenvalues --    0.73517   0.74986   0.75133   0.76567   0.77141
 Alpha virt. eigenvalues --    0.80178   0.83203   0.83882   0.85027   0.87551
 Alpha virt. eigenvalues --    0.91205   0.91703   0.92452   0.92882   0.93346
 Alpha virt. eigenvalues --    0.93425   0.94060   0.94665   0.95607   0.96661
 Alpha virt. eigenvalues --    0.98865   0.99691   1.01580   1.01915   1.03003
 Alpha virt. eigenvalues --    1.03312   1.04816   1.06177   1.07642   1.08781
 Alpha virt. eigenvalues --    1.10359   1.13045   1.14901   1.15899   1.19023
 Alpha virt. eigenvalues --    1.20166   1.21529   1.24396   1.25906   1.26289
 Alpha virt. eigenvalues --    1.27054   1.28484   1.31066   1.31735   1.33196
 Alpha virt. eigenvalues --    1.35525   1.37763   1.39606   1.44697   1.47990
 Alpha virt. eigenvalues --    1.48759   1.50190   1.50655   1.52420   1.53443
 Alpha virt. eigenvalues --    1.53747   1.55332   1.56835   1.57031   1.57682
 Alpha virt. eigenvalues --    1.58311   1.58569   1.59010   1.66662   1.69064
 Alpha virt. eigenvalues --    1.71208   1.79939   1.83088   1.85514   1.86927
 Alpha virt. eigenvalues --    1.88826   1.89957   1.91584   1.93147   1.93653
 Alpha virt. eigenvalues --    1.95609   1.97372   1.99107   2.01092   2.02489
 Alpha virt. eigenvalues --    2.03962   2.04672   2.05900   2.06197   2.06366
 Alpha virt. eigenvalues --    2.07255   2.09561   2.15143   2.16243   2.18417
 Alpha virt. eigenvalues --    2.21159   2.21906   2.22852   2.23191   2.23465
 Alpha virt. eigenvalues --    2.25831   2.26453   2.31210   2.32494   2.33427
 Alpha virt. eigenvalues --    2.36939   2.38762   2.39187   2.40228   2.40840
 Alpha virt. eigenvalues --    2.48283   2.48736   2.51932   2.59300   2.61102
 Alpha virt. eigenvalues --    2.63617   2.65790   2.67518   2.70488   2.73702
 Alpha virt. eigenvalues --    2.74702   2.75258   2.80558   2.80873   2.81384
 Alpha virt. eigenvalues --    2.82402   2.82875   2.84451   2.87083   2.91028
 Alpha virt. eigenvalues --    2.92611   2.93263   3.02578   3.09707   3.12470
 Alpha virt. eigenvalues --    3.18375   3.20048   3.40939   3.51414   3.52417
 Alpha virt. eigenvalues --    4.12441   4.18794   4.19157   4.19992   4.21272
 Alpha virt. eigenvalues --    4.21646   4.26231   4.31682   4.38424   4.42414
 Alpha virt. eigenvalues --    4.42887   4.46894   4.51594   4.65102   4.82169
 Alpha virt. eigenvalues --    4.84122
          Condensed to atoms (all electrons):
               1          2          3          4          5          6
     1  C    4.879787   0.522868  -0.015243  -0.039572  -0.030231   0.556533
     2  C    0.522868   5.000569   0.563057  -0.061420  -0.039769  -0.044623
     3  C   -0.015243   0.563057   4.495975   0.548453  -0.017572  -0.033785
     4  C   -0.039572  -0.061420   0.548453   4.960975   0.539884  -0.044461
     5  C   -0.030231  -0.039769  -0.017572   0.539884   4.864512   0.554644
     6  C    0.556533  -0.044623  -0.033785  -0.044461   0.554644   4.871146
     7  H    0.367484  -0.033214   0.002491   0.000731   0.003717  -0.036886
     8  H   -0.034141   0.357938  -0.033474   0.004544   0.000142   0.003655
     9  H    0.000048   0.005416  -0.040140   0.363030  -0.036441   0.004029
    10  H    0.003842   0.000576   0.003002  -0.035023   0.368624  -0.037060
    11  H   -0.037456   0.003911   0.000520   0.003803  -0.037683   0.370928
    12  N    0.005865  -0.069794   0.275488  -0.058440   0.004393   0.000287
    13  C    0.000455  -0.002861  -0.052938   0.005581  -0.000184   0.000009
    14  H   -0.000017   0.000980  -0.000251  -0.001780   0.000040  -0.000000
    15  O    0.000163  -0.001728  -0.001685   0.000040  -0.000000  -0.000001
    16  O    0.000002   0.000026   0.003137  -0.000196  -0.000001   0.000000
    17  C   -0.000000  -0.000000  -0.000024   0.000004   0.000000   0.000000
    18  C   -0.000000  -0.000001  -0.000042   0.000002  -0.000000   0.000000
    19  C   -0.000000  -0.000001  -0.000012   0.000000  -0.000000   0.000000
    20  C    0.000000  -0.000000  -0.000001   0.000000  -0.000000  -0.000000
    21  H   -0.000000  -0.000000   0.000008  -0.000003  -0.000000   0.000000
    22  C   -0.000000   0.000000   0.000000   0.000000   0.000000  -0.000000
    23  H   -0.000000  -0.000000  -0.000000  -0.000000  -0.000000   0.000000
    24  C    0.000000  -0.000000   0.000000  -0.000000   0.000000   0.000000
    25  H    0.000000   0.000000   0.000000  -0.000000   0.000000   0.000000
    26  H    0.000000   0.000000   0.000000  -0.000000  -0.000000  -0.000000
    27  H   -0.000000  -0.000000  -0.000000   0.000000   0.000000  -0.000000
               7          8          9         10         11         12
     1  C    0.367484  -0.034141   0.000048   0.003842  -0.037456   0.005865
     2  C   -0.033214   0.357938   0.005416   0.000576   0.003911  -0.069794
     3  C    0.002491  -0.033474  -0.040140   0.003002   0.000520   0.275488
     4  C    0.000731   0.004544   0.363030  -0.035023   0.003803  -0.058440
     5  C    0.003717   0.000142  -0.036441   0.368624  -0.037683   0.004393
     6  C   -0.036886   0.003655   0.004029  -0.037060   0.370928   0.000287
     7  H    0.530035  -0.003741   0.000013  -0.000149  -0.003961  -0.000113
     8  H   -0.003741   0.508661  -0.000111   0.000011  -0.000123  -0.012324
     9  H    0.000013  -0.000111   0.541061  -0.004424  -0.000130  -0.002932
    10  H   -0.000149   0.000011  -0.004424   0.533437  -0.003973  -0.000100
    11  H   -0.003961  -0.000123  -0.000130  -0.003973   0.535399   0.000003
    12  N   -0.000113  -0.012324  -0.002932  -0.000100   0.000003   7.325690
    13  C   -0.000002   0.005146  -0.000043   0.000002  -0.000000   0.371001
    14  H    0.000000  -0.000107   0.001153  -0.000001  -0.000000   0.158156
    15  O   -0.000000   0.009564   0.000002  -0.000000   0.000000  -0.044061
    16  O   -0.000000   0.000070  -0.000134  -0.000000   0.000000  -0.217797
    17  C    0.000000   0.000002   0.000005   0.000000  -0.000000   0.008607
    18  C    0.000000  -0.000000  -0.000002   0.000000   0.000000  -0.000796
    19  C    0.000000  -0.000001  -0.000000   0.000000  -0.000000   0.000457
    20  C   -0.000000  -0.000000  -0.000000   0.000000   0.000000  -0.000042
    21  H   -0.000000  -0.000000   0.000017  -0.000000  -0.000000   0.000215
    22  C    0.000000   0.000000   0.000000  -0.000000   0.000000   0.000003
    23  H   -0.000000   0.000000  -0.000000   0.000000  -0.000000   0.000045
    24  C   -0.000000   0.000000   0.000000  -0.000000  -0.000000   0.000001
    25  H   -0.000000   0.000000  -0.000000  -0.000000   0.000000   0.000000
    26  H   -0.000000  -0.000000  -0.000000   0.000000   0.000000  -0.000000
    27  H    0.000000  -0.000000  -0.000000   0.000000  -0.000000   0.000000
              13         14         15         16         17         18
     1  C    0.000455  -0.000017   0.000163   0.000002  -0.000000  -0.000000
     2  C   -0.002861   0.000980  -0.001728   0.000026  -0.000000  -0.000001
     3  C   -0.052938  -0.000251  -0.001685   0.003137  -0.000024  -0.000042
     4  C    0.005581  -0.001780   0.000040  -0.000196   0.000004   0.000002
     5  C   -0.000184   0.000040  -0.000000  -0.000001   0.000000  -0.000000
     6  C    0.000009  -0.000000  -0.000001   0.000000   0.000000   0.000000
     7  H   -0.000002   0.000000  -0.000000  -0.000000   0.000000   0.000000
     8  H    0.005146  -0.000107   0.009564   0.000070   0.000002  -0.000000
     9  H   -0.000043   0.001153   0.000002  -0.000134   0.000005  -0.000002
    10  H    0.000002  -0.000001  -0.000000  -0.000000   0.000000   0.000000
    11  H   -0.000000  -0.000000   0.000000   0.000000  -0.000000   0.000000
    12  N    0.371001   0.158156  -0.044061  -0.217797   0.008607  -0.000796
    13  C    4.261455  -0.075373   0.586349   0.146048  -0.008954   0.000773
    14  H   -0.075373   0.308476   0.003465   0.116773  -0.007043   0.000957
    15  O    0.586349   0.003465   7.904410  -0.041534   0.000300   0.000030
    16  O    0.146048   0.116773  -0.041534   8.616775   0.168532  -0.043569
    17  C   -0.008954  -0.007043   0.000300   0.168532   4.506154   0.553613
    18  C    0.000773   0.000957   0.000030  -0.043569   0.553613   4.984574
    19  C   -0.001740   0.001816   0.001649  -0.048181   0.561381  -0.067325
    20  C   -0.000049   0.000222   0.000005   0.003864  -0.020429   0.528305
    21  H   -0.000152   0.003804  -0.000005  -0.003989  -0.037581   0.361371
    22  C    0.000063  -0.000058  -0.000031   0.003347  -0.020452  -0.036955
    23  H    0.001098  -0.000106   0.001869  -0.003743  -0.033522   0.004968
    24  C    0.000031   0.000001  -0.000001   0.000219  -0.035343  -0.047044
    25  H    0.000000  -0.000009  -0.000000  -0.000057   0.002694  -0.033265
    26  H   -0.000004   0.000001  -0.000000  -0.000058   0.003052   0.000554
    27  H    0.000000  -0.000000   0.000000   0.000002   0.000557   0.003913
              19         20         21         22         23         24
     1  C   -0.000000   0.000000  -0.000000  -0.000000  -0.000000   0.000000
     2  C   -0.000001  -0.000000  -0.000000   0.000000  -0.000000  -0.000000
     3  C   -0.000012  -0.000001   0.000008   0.000000  -0.000000   0.000000
     4  C    0.000000   0.000000  -0.000003   0.000000  -0.000000  -0.000000
     5  C   -0.000000  -0.000000  -0.000000   0.000000  -0.000000   0.000000
     6  C    0.000000  -0.000000   0.000000  -0.000000   0.000000   0.000000
     7  H    0.000000  -0.000000  -0.000000   0.000000  -0.000000  -0.000000
     8  H   -0.000001  -0.000000  -0.000000   0.000000   0.000000   0.000000
     9  H   -0.000000  -0.000000   0.000017   0.000000  -0.000000   0.000000
    10  H    0.000000   0.000000  -0.000000  -0.000000   0.000000  -0.000000
    11  H   -0.000000   0.000000  -0.000000   0.000000  -0.000000  -0.000000
    12  N    0.000457  -0.000042   0.000215   0.000003   0.000045   0.000001
    13  C   -0.001740  -0.000049  -0.000152   0.000063   0.001098   0.000031
    14  H    0.001816   0.000222   0.003804  -0.000058  -0.000106   0.000001
    15  O    0.001649   0.000005  -0.000005  -0.000031   0.001869  -0.000001
    16  O   -0.048181   0.003864  -0.003989   0.003347  -0.003743   0.000219
    17  C    0.561381  -0.020429  -0.037581  -0.020452  -0.033522  -0.035343
    18  C   -0.067325   0.528305   0.361371  -0.036955   0.004968  -0.047044
    19  C    4.947740  -0.036203   0.004741   0.530170   0.363911  -0.043575
    20  C   -0.036203   4.869834  -0.033390  -0.031744   0.000058   0.559887
    21  H    0.004741  -0.033390   0.532742   0.000143  -0.000117   0.003805
    22  C    0.530170  -0.031744   0.000143   4.877865  -0.035282   0.553623
    23  H    0.363911   0.000058  -0.000117  -0.035282   0.507751   0.003781
    24  C   -0.043575   0.559887   0.003805   0.553623   0.003781   4.871020
    25  H    0.000536   0.367205  -0.004190   0.003802   0.000011  -0.036133
    26  H   -0.033739   0.003837   0.000011   0.368320  -0.004078  -0.037164
    27  H    0.003716  -0.037483  -0.000128  -0.037280  -0.000117   0.371354
              25         26         27
     1  C    0.000000   0.000000  -0.000000
     2  C    0.000000   0.000000  -0.000000
     3  C    0.000000   0.000000  -0.000000
     4  C   -0.000000  -0.000000   0.000000
     5  C    0.000000  -0.000000   0.000000
     6  C    0.000000  -0.000000  -0.000000
     7  H   -0.000000  -0.000000   0.000000
     8  H    0.000000  -0.000000  -0.000000
     9  H   -0.000000  -0.000000  -0.000000
    10  H   -0.000000   0.000000   0.000000
    11  H    0.000000   0.000000  -0.000000
    12  N    0.000000  -0.000000   0.000000
    13  C    0.000000  -0.000004   0.000000
    14  H   -0.000009   0.000001  -0.000000
    15  O   -0.000000  -0.000000   0.000000
    16  O   -0.000057  -0.000058   0.000002
    17  C    0.002694   0.003052   0.000557
    18  C   -0.033265   0.000554   0.003913
    19  C    0.000536  -0.033739   0.003716
    20  C    0.367205   0.003837  -0.037483
    21  H   -0.004190   0.000011  -0.000128
    22  C    0.003802   0.368320  -0.037280
    23  H    0.000011  -0.004078  -0.000117
    24  C   -0.036133  -0.037164   0.371354
    25  H    0.529459  -0.000147  -0.003964
    26  H   -0.000147   0.527716  -0.003971
    27  H   -0.003964  -0.003971   0.533047
 Mulliken charges:
               1
     1  C   -0.180388
     2  C   -0.201932
     3  C    0.303033
     4  C   -0.186153
     5  C   -0.174076
     6  C   -0.164415
     7  H    0.173593
     8  H    0.194288
     9  H    0.169581
    10  H    0.171235
    11  H    0.168762
    12  N   -0.743812
    13  C    0.764287
    14  H    0.488902
    15  O   -0.418801
    16  O   -0.699536
    17  C    0.358445
    18  C   -0.210062
    19  C   -0.185339
    20  C   -0.173876
    21  H    0.172698
    22  C   -0.175534
    23  H    0.193476
    24  C   -0.164462
    25  H    0.174059
    26  H    0.175670
    27  H    0.170356
 Sum of Mulliken charges =  -0.00000
 Mulliken charges with hydrogens summed into heavy atoms:
               1
     1  C   -0.006794
     2  C   -0.007644
     3  C    0.303033
     4  C   -0.016572
     5  C   -0.002840
     6  C    0.004348
    12  N   -0.743812
    13  C    0.764287
    15  O   -0.418801
    16  O   -0.210634
    17  C    0.358445
    18  C   -0.037364
    19  C    0.008137
    20  C    0.000183
    22  C    0.000137
    24  C    0.005894
 Electronic spatial extent (au):  <R**2>=          10628.7856
 Charge=             -0.0000 electrons
 Dipole moment (field-independent basis, Debye):
    X=             -0.3904    Y=              1.5115    Z=              1.1074  Tot=              1.9140
 Quadrupole moment (field-independent basis, Debye-Ang):
   XX=            -82.5474   YY=            -86.9501   ZZ=            -90.1214
   XY=              4.0430   XZ=              9.7056   YZ=              2.0630
 Traceless Quadrupole moment (field-independent basis, Debye-Ang):
   XX=              3.9922   YY=             -0.4105   ZZ=             -3.5818
   XY=              4.0430   XZ=              9.7056   YZ=              2.0630
 Octapole moment (field-independent basis, Debye-Ang**2):
  XXX=           -920.9839  YYY=             74.3542  ZZZ=           -232.4599  XYY=           -325.6293
  XXY=              8.4234  XXZ=              3.0715  XZZ=           -292.6621  YZZ=             29.5641
  YYZ=            -76.3608  XYZ=              9.8210
 Hexadecapole moment (field-independent basis, Debye-Ang**3):
 XXXX=         -11698.3996 YYYY=           -724.1442 ZZZZ=          -1195.2107 XXXY=            -75.1222
 XXXZ=           -908.9148 YYYX=            285.5279 YYYZ=            -11.0979 ZZZX=          -1476.0360
 ZZZY=             19.9066 XXYY=          -2105.5403 XXZZ=          -1939.1962 YYZZ=           -317.2398
 XXYZ=             10.5359 YYXZ=           -506.1485 ZZXY=            129.5925
 N-N= 9.725426357618D+02 E-N=-3.589051303936D+03  KE= 7.004638999710D+02
 No NMR shielding tensors so no spin-rotation constants.
 Leave Link  601 at Tue May 28 17:05:13 2024, MaxMem=  7516192768 cpu:               3.0 elap:               0.2
 (Enter /software/gaussian/g16-c01/avx2/g16/l9999.exe)
 Unable to Open any file for archive entry.
 1\1\GINC-BHD0002\FTS\RwB97XD\6-31G(d)\C13H11N1O2\BWEIGHT\28-May-2024\0
 \\#P OPT=QST3 wB97XD/6-31G* NoSymm\\Reactants\\0,1\C,-0.4935371914,-1.
 3063704022,0.1830044549\C,0.8970950438,-1.3248572643,0.1768118254\C,1.
 601165236,-0.1195231756,0.1165706891\C,0.9084537893,1.0909571597,0.064
 0475837\C,-0.4808652702,1.0962337124,0.0712823595\C,-1.1887492471,-0.1
 015521164,0.1306950246\H,-1.0358258945,-2.2459879386,0.2296826479\H,1.
 4330812268,-2.2673957024,0.2189002552\H,1.4696070631,2.0190693395,0.01
 69936796\H,-1.0119638522,2.0424495333,0.0297997101\H,-2.2741292918,-0.
 0959182922,0.1362117165\N,3.0093320991,-0.0582056376,0.1109144785\C,3.
 8050916397,-1.0820234936,0.1268250091\H,4.1392288569,0.6258593775,0.07
 26169279\O,4.0011077165,-2.2429450883,0.1800015988\O,5.1626302043,0.01
 26347899,0.0130272775\C,6.0148953472,0.0191435261,1.0948704329\C,5.982
 1254102,1.0699500055,2.0069211336\C,6.9016833916,-1.0423561621,1.25024
 69869\C,6.8582581584,1.0569671408,3.0879678514\H,5.2830096935,1.888772
 3477,1.8639800827\C,7.7647511592,-1.0464086661,2.3406107181\H,6.899221
 9105,-1.8471835925,0.5234692904\C,7.7486227987,0.0006205836,3.25965482
 69\H,6.8407263576,1.8770896172,3.7992718798\H,8.4571477999,-1.87272006
 05,2.4695763581\H,8.428588845,-0.0062394307,4.1055583209\\Version=ES64
 L-G16RevC.01\HF=-706.9058793\RMSD=6.049e-09\RMSF=6.080e-06\Dipole=-0.1
 536019,0.5946765,0.4356716\Quadrupole=2.9681314,-0.3051707,-2.6629606,
 3.0058675,7.2158951,1.5338089\PG=C01 [X(C13H11N1O2)]\\@
 The archive entry for this job was punched.


 ADAM SMITH SAID, "THE REAL PRICE OF ANYTHING IS THE TOIL AND TROUBLE
 OF ACQUIRING IT."  BUT IN ALL UNDERTAKINGS WITH NATURE WE SHOULD FIRST
 READ CAREFULLY THE SMALL PRINT IN THE CONTRACT. THIS MIGHT DISCLOSE
 THAT THE REAL PRICE IS TO BE PAID BY THOSE WHO INHERIT THE DEPLETION
 AND DESPOILATION THAT FOLLOWS.
                               -- E. R. HARRISON IN "COSMOLOGY" (1980)
 Job cpu time:       0 days  3 hours 55 minutes 56.6 seconds.
 Elapsed time:       0 days  0 hours 10 minutes  1.7 seconds.
 File lengths (MBytes):  RWF=     49 Int=      0 D2E=      0 Chk=     32 Scr=      1
 Normal termination of Gaussian 16 at Tue May 28 17:05:14 2024.
