14
geometry.out	Energy: -250747.8535533
C         -0.71456       -1.26431        0.12826
C          0.66184       -1.09565        0.03460
C          1.18972        0.18535       -0.14600
C          0.33995        1.28797       -0.23176
C         -1.03494        1.10698       -0.13673
C         -1.56752       -0.16689        0.04333
H         -1.12050       -2.26145        0.26863
H          1.32877       -1.95030        0.10057
H          0.76892        2.27428       -0.37206
H         -1.69270        1.96804       -0.20397
H         -2.64159       -0.30435        0.11714
N          2.56698        0.40598       -0.24594
C          3.59898       -0.21758       -0.22655
O          4.66564       -0.70552       -0.22528
