 Entering Gaussian System, Link 0=g16
 Initial command:
 /software/gaussian/g16-c01/avx2/g16/l1.exe "/local_scratch/24931454/Gau-23707.inp" -scrdir="/local_scratch/24931454/"
 Entering Link 1 = /software/gaussian/g16-c01/avx2/g16/l1.exe PID=     23710.
  
 Copyright (c) 1988-2019, Gaussian, Inc.  All Rights Reserved.
  
 This is part of the Gaussian(R) 16 program.  It is based on
 the Gaussian(R) 09 system (copyright 2009, Gaussian, Inc.),
 the Gaussian(R) 03 system (copyright 2003, Gaussian, Inc.),
 the Gaussian(R) 98 system (copyright 1998, Gaussian, Inc.),
 the Gaussian(R) 94 system (copyright 1995, Gaussian, Inc.),
 the Gaussian 92(TM) system (copyright 1992, Gaussian, Inc.),
 the Gaussian 90(TM) system (copyright 1990, Gaussian, Inc.),
 the Gaussian 88(TM) system (copyright 1988, Gaussian, Inc.),
 the Gaussian 86(TM) system (copyright 1986, Carnegie Mellon
 University), and the Gaussian 82(TM) system (copyright 1983,
 Carnegie Mellon University). Gaussian is a federally registered
 trademark of Gaussian, Inc.
  
 This software contains proprietary and confidential information,
 including trade secrets, belonging to Gaussian, Inc.
  
 This software is provided under written license and may be
 used, copied, transmitted, or stored only in accord with that
 written license.
  
 The following legend is applicable only to US Government
 contracts under FAR:
  
                    RESTRICTED RIGHTS LEGEND
  
 Use, reproduction and disclosure by the US Government is
 subject to restrictions as set forth in subparagraphs (a)
 and (c) of the Commercial Computer Software - Restricted
 Rights clause in FAR 52.227-19.
  
 Gaussian, Inc.
 340 Quinnipiac St., Bldg. 40, Wallingford CT 06492
  
  
 ---------------------------------------------------------------
 Warning -- This program may not be used in any manner that
 competes with the business of Gaussian, Inc. or will provide
 assistance to any competitor of Gaussian, Inc.  The licensee
 of this program is prohibited from giving any competitor of
 Gaussian, Inc. access to this program.  By using this program,
 the user acknowledges that Gaussian, Inc. is engaged in the
 business of creating and licensing software in the field of
 computational chemistry and represents and warrants to the
 licensee that it is not a competitor of Gaussian, Inc. and that
 it will not use this program in any manner prohibited above.
 ---------------------------------------------------------------
  

 Cite this work as:
 Gaussian 16, Revision C.01,
 M. J. Frisch, G. W. Trucks, H. B. Schlegel, G. E. Scuseria, 
 M. A. Robb, J. R. Cheeseman, G. Scalmani, V. Barone, 
 G. A. Petersson, H. Nakatsuji, X. Li, M. Caricato, A. V. Marenich, 
 J. Bloino, B. G. Janesko, R. Gomperts, B. Mennucci, H. P. Hratchian, 
 J. V. Ortiz, A. F. Izmaylov, J. L. Sonnenberg, D. Williams-Young, 
 F. Ding, F. Lipparini, F. Egidi, J. Goings, B. Peng, A. Petrone, 
 T. Henderson, D. Ranasinghe, V. G. Zakrzewski, J. Gao, N. Rega, 
 G. Zheng, W. Liang, M. Hada, M. Ehara, K. Toyota, R. Fukuda, 
 J. Hasegawa, M. Ishida, T. Nakajima, Y. Honda, O. Kitao, H. Nakai, 
 T. Vreven, K. Throssell, J. A. Montgomery, Jr., J. E. Peralta, 
 F. Ogliaro, M. J. Bearpark, J. J. Heyd, E. N. Brothers, K. N. Kudin, 
 V. N. Staroverov, T. A. Keith, R. Kobayashi, J. Normand, 
 K. Raghavachari, A. P. Rendell, J. C. Burant, S. S. Iyengar, 
 J. Tomasi, M. Cossi, J. M. Millam, M. Klene, C. Adamo, R. Cammi, 
 J. W. Ochterski, R. L. Martin, K. Morokuma, O. Farkas, 
 J. B. Foresman, and D. J. Fox, Gaussian, Inc., Wallingford CT, 2019.
 
 ******************************************
 Gaussian 16:  ES64L-G16RevC.01  3-Jul-2019
                28-May-2024 
 ******************************************
 %chk=geometry.chk
 %mem=4GB
 %nprocshared=4
 Will use up to    4 processors via shared memory.
 ---------------------------
 #P OPT wB97XD/6-31G* NoSymm
 ---------------------------
 1/18=20,19=15,26=3,38=1/1,3;
 2/9=110,12=2,15=1,17=6,18=5,40=1/2;
 3/5=1,6=6,7=1,11=2,25=1,30=1,71=1,74=-58/1,2,3;
 4//1;
 5/5=2,38=5/2;
 6/7=2,8=2,9=2,10=2,28=1/1;
 7/30=1/1,2,3,16;
 1/18=20,19=15,26=3/3(2);
 2/9=110,15=1/2;
 99//99;
 2/9=110,15=1/2;
 3/5=1,6=6,7=1,11=2,25=1,30=1,71=1,74=-58/1,2,3;
 4/5=5,16=3,69=1/1;
 5/5=2,38=5/2;
 7/30=1/1,2,3,16;
 1/18=20,19=15,26=3/3(-5);
 2/9=110,15=1/2;
 6/7=2,8=2,9=2,10=2,19=2,28=1/1;
 99/9=1/99;
 Leave Link    1 at Tue May 28 16:28:50 2024, MaxMem=   536870912 cpu:               0.4 elap:               0.1
 (Enter /software/gaussian/g16-c01/avx2/g16/l101.exe)
 --------------------------
 PHI Geometry (Unoptimized)
 --------------------------
 Symbolic Z-matrix:
 Charge =  0 Multiplicity = 1
 C                    -0.59919  -1.24837   0.12076 
 C                     0.77018  -0.96721   0.01319 
 C                     1.2038    0.35504  -0.16747 
 C                     0.26763   1.39538  -0.24155 
 C                    -1.10187   1.11355  -0.13404 
 C                    -1.53519  -0.20797   0.04711 
 H                    -0.9304   -2.25731   0.25894 
 H                     1.48499  -1.76151   0.07024 
 H                     0.59842   2.40457  -0.38049 
 H                    -1.81676   1.90715  -0.19036 
 H                    -2.58114  -0.42285   0.12916 
 N                     2.64053   0.65014  -0.27909 
 C                     3.50278  -0.31181  -0.2104 
 O                     4.44521  -1.38625  -0.13177 
 
 ITRead=  0  0  0  0  0  0  0  0  0  0  0  0  0  0
 MicOpt= -1 -1 -1 -1 -1 -1 -1 -1 -1 -1 -1 -1 -1 -1
 NAtoms=     14 NQM=       14 NQMF=       0 NMMI=      0 NMMIF=      0
                NMic=       0 NMicF=      0.
                    Isotopes and Nuclear Properties:
 (Nuclear quadrupole moments (NQMom) in fm**2, nuclear magnetic moments (NMagM)
  in nuclear magnetons)

  Atom         1           2           3           4           5           6           7           8           9          10
 IAtWgt=          12          12          12          12          12          12           1           1           1           1
 AtmWgt=  12.0000000  12.0000000  12.0000000  12.0000000  12.0000000  12.0000000   1.0078250   1.0078250   1.0078250   1.0078250
 NucSpn=           0           0           0           0           0           0           1           1           1           1
 AtZEff=  -0.0000000  -0.0000000  -0.0000000  -0.0000000  -0.0000000  -0.0000000  -0.0000000  -0.0000000  -0.0000000  -0.0000000
 NQMom=    0.0000000   0.0000000   0.0000000   0.0000000   0.0000000   0.0000000   0.0000000   0.0000000   0.0000000   0.0000000
 NMagM=    0.0000000   0.0000000   0.0000000   0.0000000   0.0000000   0.0000000   2.7928460   2.7928460   2.7928460   2.7928460
 AtZNuc=   6.0000000   6.0000000   6.0000000   6.0000000   6.0000000   6.0000000   1.0000000   1.0000000   1.0000000   1.0000000

  Atom        11          12          13          14
 IAtWgt=           1          14          12          16
 AtmWgt=   1.0078250  14.0030740  12.0000000  15.9949146
 NucSpn=           1           2           0           0
 AtZEff=  -0.0000000  -0.0000000  -0.0000000  -0.0000000
 NQMom=    0.0000000   2.0440000   0.0000000   0.0000000
 NMagM=    2.7928460   0.4037610   0.0000000   0.0000000
 AtZNuc=   1.0000000   7.0000000   6.0000000   8.0000000
 Leave Link  101 at Tue May 28 16:28:51 2024, MaxMem=   536870912 cpu:               0.8 elap:               0.2
 (Enter /software/gaussian/g16-c01/avx2/g16/l103.exe)

 GradGradGradGradGradGradGradGradGradGradGradGradGradGradGradGradGradGrad
 Berny optimization.
 Initialization pass.
                           ----------------------------
                           !    Initial Parameters    !
                           ! (Angstroms and Degrees)  !
 --------------------------                            --------------------------
 ! Name  Definition              Value          Derivative Info.                !
 --------------------------------------------------------------------------------
 ! R1    R(1,2)                  1.4021         estimate D2E/DX2                !
 ! R2    R(1,6)                  1.4014         estimate D2E/DX2                !
 ! R3    R(1,7)                  1.0709         estimate D2E/DX2                !
 ! R4    R(2,3)                  1.4032         estimate D2E/DX2                !
 ! R5    R(2,8)                  1.0701         estimate D2E/DX2                !
 ! R6    R(3,4)                  1.4015         estimate D2E/DX2                !
 ! R7    R(3,12)                 1.471          estimate D2E/DX2                !
 ! R8    R(4,5)                  1.4023         estimate D2E/DX2                !
 ! R9    R(4,9)                  1.0711         estimate D2E/DX2                !
 ! R10   R(5,6)                  1.4025         estimate D2E/DX2                !
 ! R11   R(5,10)                 1.0696         estimate D2E/DX2                !
 ! R12   R(6,11)                 1.0709         estimate D2E/DX2                !
 ! R13   R(12,13)                1.2936         estimate D2E/DX2                !
 ! R14   R(13,14)                1.4314         estimate D2E/DX2                !
 ! A1    A(2,1,6)              119.9618         estimate D2E/DX2                !
 ! A2    A(2,1,7)              120.0605         estimate D2E/DX2                !
 ! A3    A(6,1,7)              119.9777         estimate D2E/DX2                !
 ! A4    A(1,2,3)              120.0427         estimate D2E/DX2                !
 ! A5    A(1,2,8)              119.9654         estimate D2E/DX2                !
 ! A6    A(3,2,8)              119.9918         estimate D2E/DX2                !
 ! A7    A(2,3,4)              119.9908         estimate D2E/DX2                !
 ! A8    A(2,3,12)             120.0418         estimate D2E/DX2                !
 ! A9    A(4,3,12)             119.9675         estimate D2E/DX2                !
 ! A10   A(3,4,5)              119.9411         estimate D2E/DX2                !
 ! A11   A(3,4,9)              119.9982         estimate D2E/DX2                !
 ! A12   A(5,4,9)              120.0607         estimate D2E/DX2                !
 ! A13   A(4,5,6)              120.0666         estimate D2E/DX2                !
 ! A14   A(4,5,10)             119.9721         estimate D2E/DX2                !
 ! A15   A(6,5,10)             119.9613         estimate D2E/DX2                !
 ! A16   A(1,6,5)              119.997          estimate D2E/DX2                !
 ! A17   A(1,6,11)             119.9552         estimate D2E/DX2                !
 ! A18   A(5,6,11)             120.0477         estimate D2E/DX2                !
 ! A19   A(3,12,13)            119.8553         estimate D2E/DX2                !
 ! A20   L(12,13,14,7,-1)      179.3758         estimate D2E/DX2                !
 ! A21   L(12,13,14,7,-2)      180.0331         estimate D2E/DX2                !
 ! D1    D(6,1,2,3)              0.0306         estimate D2E/DX2                !
 ! D2    D(6,1,2,8)            179.949          estimate D2E/DX2                !
 ! D3    D(7,1,2,3)           -179.9813         estimate D2E/DX2                !
 ! D4    D(7,1,2,8)             -0.063          estimate D2E/DX2                !
 ! D5    D(2,1,6,5)             -0.0031         estimate D2E/DX2                !
 ! D6    D(2,1,6,11)           179.9918         estimate D2E/DX2                !
 ! D7    D(7,1,6,5)           -179.9911         estimate D2E/DX2                !
 ! D8    D(7,1,6,11)             0.0038         estimate D2E/DX2                !
 ! D9    D(1,2,3,4)             -0.0514         estimate D2E/DX2                !
 ! D10   D(1,2,3,12)           179.9439         estimate D2E/DX2                !
 ! D11   D(8,2,3,4)           -179.9697         estimate D2E/DX2                !
 ! D12   D(8,2,3,12)             0.0257         estimate D2E/DX2                !
 ! D13   D(2,3,4,5)              0.0445         estimate D2E/DX2                !
 ! D14   D(2,3,4,9)           -179.9353         estimate D2E/DX2                !
 ! D15   D(12,3,4,5)          -179.9508         estimate D2E/DX2                !
 ! D16   D(12,3,4,9)             0.0694         estimate D2E/DX2                !
 ! D17   D(2,3,12,13)            0.0037         estimate D2E/DX2                !
 ! D18   D(4,3,12,13)          179.9991         estimate D2E/DX2                !
 ! D19   D(3,4,5,6)             -0.0169         estimate D2E/DX2                !
 ! D20   D(3,4,5,10)           179.9907         estimate D2E/DX2                !
 ! D21   D(9,4,5,6)            179.9628         estimate D2E/DX2                !
 ! D22   D(9,4,5,10)            -0.0295         estimate D2E/DX2                !
 ! D23   D(4,5,6,1)             -0.0038         estimate D2E/DX2                !
 ! D24   D(4,5,6,11)          -179.9987         estimate D2E/DX2                !
 ! D25   D(10,5,6,1)           179.9885         estimate D2E/DX2                !
 ! D26   D(10,5,6,11)           -0.0063         estimate D2E/DX2                !
 --------------------------------------------------------------------------------
 Trust Radius=3.00D-01 FncErr=1.00D-07 GrdErr=1.00D-06 EigMax=2.50D+02 EigMin=1.00D-04
 Number of steps in this run=     71 maximum allowed number of steps=    100.
 GradGradGradGradGradGradGradGradGradGradGradGradGradGradGradGradGradGrad

 Leave Link  103 at Tue May 28 16:28:51 2024, MaxMem=   536870912 cpu:               0.1 elap:               0.0
 (Enter /software/gaussian/g16-c01/avx2/g16/l202.exe)
                          Input orientation:                          
 ---------------------------------------------------------------------
 Center     Atomic      Atomic             Coordinates (Angstroms)
 Number     Number       Type             X           Y           Z
 ---------------------------------------------------------------------
      1          6           0       -0.599188   -1.248365    0.120762
      2          6           0        0.770180   -0.967214    0.013193
      3          6           0        1.203798    0.355042   -0.167471
      4          6           0        0.267626    1.395377   -0.241549
      5          6           0       -1.101866    1.113551   -0.134039
      6          6           0       -1.535193   -0.207966    0.047111
      7          1           0       -0.930404   -2.257307    0.258940
      8          1           0        1.484994   -1.761505    0.070242
      9          1           0        0.598418    2.404570   -0.380486
     10          1           0       -1.816755    1.907150   -0.190356
     11          1           0       -2.581139   -0.422854    0.129158
     12          7           0        2.640535    0.650135   -0.279090
     13          6           0        3.502782   -0.311806   -0.210396
     14          8           0        4.445210   -1.386254   -0.131766
 ---------------------------------------------------------------------
                    Distance matrix (angstroms):
                    1          2          3          4          5
     1  C    0.000000
     2  C    1.402065   0.000000
     3  C    2.429970   1.403220   0.000000
     4  C    2.805711   2.428846   1.401500   0.000000
     5  C    2.428221   2.802823   2.427456   1.402317   0.000000
     6  C    1.401414   2.427417   2.804478   2.429854   1.402496
     7  H    1.070869   2.148655   3.400150   3.876580   3.398016
     8  H    2.147016   1.070099   2.148337   3.397809   3.872922
     9  H    3.876783   3.399031   2.147655   1.071072   2.149053
    10  H    3.396549   3.872420   3.396072   2.146900   1.069597
    11  H    2.147014   3.397222   3.875417   3.399831   2.148967
    12  N    3.776240   2.489874   1.470969   2.487466   3.773772
    13  C    4.220541   2.818983   2.394129   3.658097   4.820815
    14  O    5.052597   3.701682   3.679693   5.020132   6.084331
                    6          7          8          9         10
     6  C    0.000000
     7  H    2.147193   0.000000
     8  H    3.396402   2.472969   0.000000
     9  H    3.400070   4.947652   4.283148   0.000000
    10  H    2.146947   4.281377   4.942519   2.473184   0.000000
    11  H    1.070939   2.471232   4.281226   4.285282   2.472911
    12  N    4.275447   4.636195   2.696909   2.694172   4.631997
    13  C    5.045621   4.863990   2.500371   3.980321   5.763822
    14  O    6.097998   5.459727   2.990736   5.406479   7.075461
                   11         12         13         14
    11  H    0.000000
    12  N    5.346386   0.000000
    13  C    6.094401   1.293646   0.000000
    14  O    7.096887   2.724966   1.431360   0.000000
 Symmetry turned off by external request.
 Stoichiometry    C7H5NO
 Framework group  C1[X(C7H5NO)]
 Deg. of freedom    36
 Full point group                 C1      NOp   1
 Rotational constants (GHZ):           4.5473168           0.9910251           0.8136922
 Leave Link  202 at Tue May 28 16:28:51 2024, MaxMem=   536870912 cpu:               0.1 elap:               0.1
 (Enter /software/gaussian/g16-c01/avx2/g16/l301.exe)
 Standard basis: 6-31G(d) (6D, 7F)
 Ernie: Thresh=  0.10000D-02 Tol=  0.10000D-05 Strict=F.
   145 basis functions,   272 primitive gaussians,   145 cartesian basis functions
    31 alpha electrons       31 beta electrons
       nuclear repulsion energy       366.6817605209 Hartrees.
 IExCor= 4639 DFT=T Ex+Corr=wB97XD ExCW=0 ScaHFX=  1.000000
 ScaDFX=  1.000000  1.000000  1.000000  1.000000 ScalE2=  1.000000  1.000000
 IRadAn=      5 IRanWt=     -1 IRanGd=            0 ICorTp=0 IEmpDi=121
 HFx  wShort=  0.000000 wLong=  0.200000 cFull=  0.222036 cShort=  0.000000 cLong=  0.777964
 DFx  wShort=  0.000000 wLong=  0.200000 cFull=  0.000000 cShort=  0.000000 cLong=  1.000000
 NAtoms=   14 NActive=   14 NUniq=   14 SFac= 1.00D+00 NAtFMM=   60 NAOKFM=F Big=F
 Integral buffers will be    131072 words long.
 Raffenetti 2 integral format.
 Two-electron integral symmetry is turned off.
 R6Disp:  Grimme-D2 Dispersion energy=       -0.0058043011 Hartrees.
 Nuclear repulsion after empirical dispersion term =      366.6759562198 Hartrees.
 Leave Link  301 at Tue May 28 16:28:52 2024, MaxMem=   536870912 cpu:               0.3 elap:               0.1
 (Enter /software/gaussian/g16-c01/avx2/g16/l302.exe)
 NPDir=0 NMtPBC=     1 NCelOv=     1 NCel=       1 NClECP=     1 NCelD=      1
         NCelK=      1 NCelE2=     1 NClLst=     1 CellRange=     0.0.
 One-electron integrals computed using PRISM.
 NBasis=   145 RedAO= T EigKep=  4.77D-04  NBF=   145
 NBsUse=   145 1.00D-06 EigRej= -1.00D+00 NBFU=   145
 Precomputing XC quadrature grid using
 IXCGrd= 4 IRadAn=           5 IRanWt=          -1 IRanGd=           0 AccXCQ= 0.00D+00.
 Generated NRdTot=       0 NPtTot=           0 NUsed=           0 NTot=          32
 NSgBfM=   145   145   145   145   145 MxSgAt=    14 MxSgA2=    14.
 Leave Link  302 at Tue May 28 16:28:53 2024, MaxMem=   536870912 cpu:               1.6 elap:               0.4
 (Enter /software/gaussian/g16-c01/avx2/g16/l303.exe)
 DipDrv:  MaxL=1.
 Leave Link  303 at Tue May 28 16:28:53 2024, MaxMem=   536870912 cpu:               0.1 elap:               0.1
 (Enter /software/gaussian/g16-c01/avx2/g16/l401.exe)
 ExpMin= 1.61D-01 ExpMax= 5.48D+03 ExpMxC= 8.25D+02 IAcc=3 IRadAn=         5 AccDes= 0.00D+00
 Harris functional with IExCor= 4639 and IRadAn=       5 diagonalized for initial guess.
 HarFok:  IExCor= 4639 AccDes= 0.00D+00 IRadAn=         5 IDoV= 1 UseB2=F ITyADJ=14
 ICtDFT=  3500011 ScaDFX=  1.000000  1.000000  1.000000  1.000000
 FoFCou: FMM=F IPFlag=           0 FMFlag=      100000 FMFlg1=           0
         NFxFlg=           0 DoJE=T BraDBF=F KetDBF=T FulRan=T
         wScrn=  0.000000 ICntrl=       500 IOpCl=  0 I1Cent=   200000004 NGrid=           0
         NMat0=    1 NMatS0=      1 NMatT0=    0 NMatD0=    1 NMtDS0=    0 NMtDT0=    0
 Symmetry not used in FoFCou.
 Harris En= -382.742495715420    
 JPrj=0 DoOrth=F DoCkMO=F.
 Leave Link  401 at Tue May 28 16:28:55 2024, MaxMem=   536870912 cpu:               5.4 elap:               1.4
 (Enter /software/gaussian/g16-c01/avx2/g16/l502.exe)
 Keep R1 ints in memory in canonical form, NReq=117498978.
 FoFCou: FMM=F IPFlag=           0 FMFlag=           0 FMFlg1=           0
         NFxFlg=           0 DoJE=F BraDBF=F KetDBF=F FulRan=T
         wScrn=  0.000000 ICntrl=       600 IOpCl=  0 I1Cent=           0 NGrid=           0
         NMat0=    1 NMatS0=  10585 NMatT0=    0 NMatD0=    1 NMtDS0=    0 NMtDT0=    0
 Symmetry not used in FoFCou.
 Two-electron integral symmetry not used.
 Closed shell SCF:
 Using DIIS extrapolation, IDIIS=  1040.
 NGot=   536870912 LenX=   424773563 LenY=   424752097
 Requested convergence on RMS density matrix=1.00D-08 within 128 cycles.
 Requested convergence on MAX density matrix=1.00D-06.
 Requested convergence on             energy=1.00D-06.
 No special actions if energy rises.
 Integral accuracy reduced to 1.0D-05 until final iterations.

 Cycle   1  Pass 0  IDiag  1:
 E= -399.351257032669    
 DIIS: error= 7.28D-02 at cycle   1 NSaved=   1.
 NSaved= 1 IEnMin= 1 EnMin= -399.351257032669     IErMin= 1 ErrMin= 7.28D-02
 ErrMax= 7.28D-02  0.00D+00 EMaxC= 1.00D-01 BMatC= 4.20D-01 BMatP= 4.20D-01
 IDIUse=3 WtCom= 2.72D-01 WtEn= 7.28D-01
 Coeff-Com:  0.100D+01
 Coeff-En:   0.100D+01
 Coeff:      0.100D+01
 Gap=     0.504 Goal=   None    Shift=    0.000
 GapD=    0.504 DampG=2.000 DampE=0.500 DampFc=1.0000 IDamp=-1.
 RMSDP=4.98D-03 MaxDP=8.97D-02              OVMax= 1.81D-01

 Cycle   2  Pass 0  IDiag  1:
 E= -399.439194907528     Delta-E=       -0.087937874859 Rises=F Damp=F
 DIIS: error= 1.89D-02 at cycle   2 NSaved=   2.
 NSaved= 2 IEnMin= 2 EnMin= -399.439194907528     IErMin= 2 ErrMin= 1.89D-02
 ErrMax= 1.89D-02  0.00D+00 EMaxC= 1.00D-01 BMatC= 6.00D-02 BMatP= 4.20D-01
 IDIUse=3 WtCom= 8.11D-01 WtEn= 1.89D-01
 Coeff-Com:  0.218D+00 0.782D+00
 Coeff-En:   0.157D+00 0.843D+00
 Coeff:      0.206D+00 0.794D+00
 Gap=     0.423 Goal=   None    Shift=    0.000
 RMSDP=2.51D-03 MaxDP=5.97D-02 DE=-8.79D-02 OVMax= 1.21D-01

 Cycle   3  Pass 0  IDiag  1:
 E= -399.482303558464     Delta-E=       -0.043108650936 Rises=F Damp=F
 DIIS: error= 8.27D-03 at cycle   3 NSaved=   3.
 NSaved= 3 IEnMin= 3 EnMin= -399.482303558464     IErMin= 3 ErrMin= 8.27D-03
 ErrMax= 8.27D-03  0.00D+00 EMaxC= 1.00D-01 BMatC= 1.75D-02 BMatP= 6.00D-02
 IDIUse=3 WtCom= 9.17D-01 WtEn= 8.27D-02
 Coeff-Com:  0.251D-01 0.354D+00 0.621D+00
 Coeff-En:   0.000D+00 0.146D+00 0.854D+00
 Coeff:      0.230D-01 0.336D+00 0.641D+00
 Gap=     0.363 Goal=   None    Shift=    0.000
 RMSDP=9.67D-04 MaxDP=3.22D-02 DE=-4.31D-02 OVMax= 5.18D-02

 Cycle   4  Pass 0  IDiag  1:
 E= -399.495284997545     Delta-E=       -0.012981439081 Rises=F Damp=F
 DIIS: error= 5.90D-03 at cycle   4 NSaved=   4.
 NSaved= 4 IEnMin= 4 EnMin= -399.495284997545     IErMin= 4 ErrMin= 5.90D-03
 ErrMax= 5.90D-03  0.00D+00 EMaxC= 1.00D-01 BMatC= 4.00D-03 BMatP= 1.75D-02
 IDIUse=3 WtCom= 9.41D-01 WtEn= 5.90D-02
 Coeff-Com:  0.568D-02 0.184D+00 0.413D+00 0.397D+00
 Coeff-En:   0.000D+00 0.000D+00 0.830D-01 0.917D+00
 Coeff:      0.534D-02 0.173D+00 0.394D+00 0.428D+00
 Gap=     0.325 Goal=   None    Shift=    0.000
 RMSDP=3.55D-04 MaxDP=1.15D-02 DE=-1.30D-02 OVMax= 2.12D-02

 Cycle   5  Pass 0  IDiag  1:
 E= -399.498417080206     Delta-E=       -0.003132082662 Rises=F Damp=F
 DIIS: error= 1.39D-03 at cycle   5 NSaved=   5.
 NSaved= 5 IEnMin= 5 EnMin= -399.498417080206     IErMin= 5 ErrMin= 1.39D-03
 ErrMax= 1.39D-03  0.00D+00 EMaxC= 1.00D-01 BMatC= 2.33D-04 BMatP= 4.00D-03
 IDIUse=3 WtCom= 9.86D-01 WtEn= 1.39D-02
 Coeff-Com: -0.100D-02 0.442D-01 0.119D+00 0.229D+00 0.609D+00
 Coeff-En:   0.000D+00 0.000D+00 0.000D+00 0.000D+00 0.100D+01
 Coeff:     -0.988D-03 0.436D-01 0.117D+00 0.225D+00 0.615D+00
 Gap=     0.326 Goal=   None    Shift=    0.000
 RMSDP=9.70D-05 MaxDP=3.37D-03 DE=-3.13D-03 OVMax= 6.37D-03

 Cycle   6  Pass 0  IDiag  1:
 E= -399.498626240684     Delta-E=       -0.000209160478 Rises=F Damp=F
 DIIS: error= 3.00D-04 at cycle   6 NSaved=   6.
 NSaved= 6 IEnMin= 6 EnMin= -399.498626240684     IErMin= 6 ErrMin= 3.00D-04
 ErrMax= 3.00D-04  0.00D+00 EMaxC= 1.00D-01 BMatC= 1.67D-05 BMatP= 2.33D-04
 IDIUse=3 WtCom= 9.97D-01 WtEn= 3.00D-03
 Coeff-Com: -0.123D-02-0.192D-01-0.337D-01 0.380D-02 0.235D+00 0.816D+00
 Coeff-En:   0.000D+00 0.000D+00 0.000D+00 0.000D+00 0.000D+00 0.100D+01
 Coeff:     -0.122D-02-0.192D-01-0.336D-01 0.379D-02 0.234D+00 0.816D+00
 Gap=     0.326 Goal=   None    Shift=    0.000
 RMSDP=4.24D-05 MaxDP=8.68D-04 DE=-2.09D-04 OVMax= 2.99D-03

 Cycle   7  Pass 0  IDiag  1:
 E= -399.498651782133     Delta-E=       -0.000025541449 Rises=F Damp=F
 DIIS: error= 1.03D-04 at cycle   7 NSaved=   7.
 NSaved= 7 IEnMin= 7 EnMin= -399.498651782133     IErMin= 7 ErrMin= 1.03D-04
 ErrMax= 1.03D-04  0.00D+00 EMaxC= 1.00D-01 BMatC= 1.84D-06 BMatP= 1.67D-05
 IDIUse=3 WtCom= 9.99D-01 WtEn= 1.03D-03
 Coeff-Com: -0.185D-03-0.128D-01-0.267D-01-0.270D-01 0.940D-02 0.313D+00
 Coeff-Com:  0.744D+00
 Coeff-En:   0.000D+00 0.000D+00 0.000D+00 0.000D+00 0.000D+00 0.000D+00
 Coeff-En:   0.100D+01
 Coeff:     -0.185D-03-0.128D-01-0.267D-01-0.270D-01 0.939D-02 0.313D+00
 Coeff:      0.744D+00
 Gap=     0.327 Goal=   None    Shift=    0.000
 RMSDP=1.48D-05 MaxDP=2.96D-04 DE=-2.55D-05 OVMax= 9.57D-04

 Cycle   8  Pass 0  IDiag  1:
 E= -399.498655246541     Delta-E=       -0.000003464408 Rises=F Damp=F
 DIIS: error= 3.16D-05 at cycle   8 NSaved=   8.
 NSaved= 8 IEnMin= 8 EnMin= -399.498655246541     IErMin= 8 ErrMin= 3.16D-05
 ErrMax= 3.16D-05  0.00D+00 EMaxC= 1.00D-01 BMatC= 1.88D-07 BMatP= 1.84D-06
 IDIUse=1 WtCom= 1.00D+00 WtEn= 0.00D+00
 Coeff-Com:  0.605D-04-0.183D-02-0.358D-02-0.905D-02-0.263D-01-0.153D-01
 Coeff-Com:  0.176D+00 0.880D+00
 Coeff:      0.605D-04-0.183D-02-0.358D-02-0.905D-02-0.263D-01-0.153D-01
 Coeff:      0.176D+00 0.880D+00
 Gap=     0.327 Goal=   None    Shift=    0.000
 RMSDP=6.26D-06 MaxDP=1.40D-04 DE=-3.46D-06 OVMax= 4.15D-04

 Initial convergence to 1.0D-05 achieved.  Increase integral accuracy.
 Cycle   9  Pass 1  IDiag  1:
 E= -399.498661412481     Delta-E=       -0.000006165940 Rises=F Damp=F
 DIIS: error= 2.56D-05 at cycle   1 NSaved=   1.
 NSaved= 1 IEnMin= 1 EnMin= -399.498661412481     IErMin= 1 ErrMin= 2.56D-05
 ErrMax= 2.56D-05  0.00D+00 EMaxC= 1.00D-01 BMatC= 2.21D-07 BMatP= 2.21D-07
 IDIUse=1 WtCom= 1.00D+00 WtEn= 0.00D+00
 Coeff-Com:  0.100D+01
 Coeff:      0.100D+01
 Gap=     0.327 Goal=   None    Shift=    0.000
 RMSDP=6.26D-06 MaxDP=1.40D-04 DE=-6.17D-06 OVMax= 2.12D-04

 Cycle  10  Pass 1  IDiag  1:
 E= -399.498661495316     Delta-E=       -0.000000082835 Rises=F Damp=F
 DIIS: error= 3.46D-05 at cycle   2 NSaved=   2.
 NSaved= 2 IEnMin= 2 EnMin= -399.498661495316     IErMin= 1 ErrMin= 2.56D-05
 ErrMax= 3.46D-05  0.00D+00 EMaxC= 1.00D-01 BMatC= 1.90D-07 BMatP= 2.21D-07
 IDIUse=1 WtCom= 1.00D+00 WtEn= 0.00D+00
 Coeff-Com:  0.475D+00 0.525D+00
 Coeff:      0.475D+00 0.525D+00
 Gap=     0.327 Goal=   None    Shift=    0.000
 RMSDP=2.93D-06 MaxDP=1.21D-04 DE=-8.28D-08 OVMax= 1.40D-04

 Cycle  11  Pass 1  IDiag  1:
 E= -399.498661651377     Delta-E=       -0.000000156061 Rises=F Damp=F
 DIIS: error= 1.29D-05 at cycle   3 NSaved=   3.
 NSaved= 3 IEnMin= 3 EnMin= -399.498661651377     IErMin= 3 ErrMin= 1.29D-05
 ErrMax= 1.29D-05  0.00D+00 EMaxC= 1.00D-01 BMatC= 2.81D-08 BMatP= 1.90D-07
 IDIUse=1 WtCom= 1.00D+00 WtEn= 0.00D+00
 Coeff-Com: -0.552D-01 0.255D+00 0.801D+00
 Coeff:     -0.552D-01 0.255D+00 0.801D+00
 Gap=     0.327 Goal=   None    Shift=    0.000
 RMSDP=1.18D-06 MaxDP=3.80D-05 DE=-1.56D-07 OVMax= 8.54D-05

 Cycle  12  Pass 1  IDiag  1:
 E= -399.498661681630     Delta-E=       -0.000000030253 Rises=F Damp=F
 DIIS: error= 6.13D-06 at cycle   4 NSaved=   4.
 NSaved= 4 IEnMin= 4 EnMin= -399.498661681630     IErMin= 4 ErrMin= 6.13D-06
 ErrMax= 6.13D-06  0.00D+00 EMaxC= 1.00D-01 BMatC= 2.93D-09 BMatP= 2.81D-08
 IDIUse=1 WtCom= 1.00D+00 WtEn= 0.00D+00
 Coeff-Com: -0.539D-01 0.109D+00 0.401D+00 0.544D+00
 Coeff:     -0.539D-01 0.109D+00 0.401D+00 0.544D+00
 Gap=     0.327 Goal=   None    Shift=    0.000
 RMSDP=4.21D-07 MaxDP=1.80D-05 DE=-3.03D-08 OVMax= 2.87D-05

 Cycle  13  Pass 1  IDiag  1:
 E= -399.498661685032     Delta-E=       -0.000000003402 Rises=F Damp=F
 DIIS: error= 2.71D-06 at cycle   5 NSaved=   5.
 NSaved= 5 IEnMin= 5 EnMin= -399.498661685032     IErMin= 5 ErrMin= 2.71D-06
 ErrMax= 2.71D-06  0.00D+00 EMaxC= 1.00D-01 BMatC= 8.80D-10 BMatP= 2.93D-09
 IDIUse=1 WtCom= 1.00D+00 WtEn= 0.00D+00
 Coeff-Com: -0.148D-01-0.114D-01-0.145D-01 0.327D+00 0.713D+00
 Coeff:     -0.148D-01-0.114D-01-0.145D-01 0.327D+00 0.713D+00
 Gap=     0.327 Goal=   None    Shift=    0.000
 RMSDP=3.35D-07 MaxDP=1.07D-05 DE=-3.40D-09 OVMax= 2.92D-05

 Cycle  14  Pass 1  IDiag  1:
 E= -399.498661686784     Delta-E=       -0.000000001752 Rises=F Damp=F
 DIIS: error= 1.79D-06 at cycle   6 NSaved=   6.
 NSaved= 6 IEnMin= 6 EnMin= -399.498661686784     IErMin= 6 ErrMin= 1.79D-06
 ErrMax= 1.79D-06  0.00D+00 EMaxC= 1.00D-01 BMatC= 2.07D-10 BMatP= 8.80D-10
 IDIUse=1 WtCom= 1.00D+00 WtEn= 0.00D+00
 Coeff-Com:  0.155D-01-0.505D-01-0.180D+00-0.785D-01 0.382D+00 0.912D+00
 Coeff:      0.155D-01-0.505D-01-0.180D+00-0.785D-01 0.382D+00 0.912D+00
 Gap=     0.327 Goal=   None    Shift=    0.000
 RMSDP=2.61D-07 MaxDP=8.27D-06 DE=-1.75D-09 OVMax= 1.70D-05

 Cycle  15  Pass 1  IDiag  1:
 E= -399.498661687411     Delta-E=       -0.000000000627 Rises=F Damp=F
 DIIS: error= 2.02D-07 at cycle   7 NSaved=   7.
 NSaved= 7 IEnMin= 7 EnMin= -399.498661687411     IErMin= 7 ErrMin= 2.02D-07
 ErrMax= 2.02D-07  0.00D+00 EMaxC= 1.00D-01 BMatC= 7.73D-12 BMatP= 2.07D-10
 IDIUse=1 WtCom= 1.00D+00 WtEn= 0.00D+00
 Coeff-Com:  0.422D-02-0.872D-02-0.336D-01-0.502D-01 0.234D-01 0.169D+00
 Coeff-Com:  0.896D+00
 Coeff:      0.422D-02-0.872D-02-0.336D-01-0.502D-01 0.234D-01 0.169D+00
 Coeff:      0.896D+00
 Gap=     0.327 Goal=   None    Shift=    0.000
 RMSDP=5.55D-08 MaxDP=1.24D-06 DE=-6.27D-10 OVMax= 3.98D-06

 Cycle  16  Pass 1  IDiag  1:
 E= -399.498661687436     Delta-E=       -0.000000000025 Rises=F Damp=F
 DIIS: error= 8.85D-08 at cycle   8 NSaved=   8.
 NSaved= 8 IEnMin= 8 EnMin= -399.498661687436     IErMin= 8 ErrMin= 8.85D-08
 ErrMax= 8.85D-08  0.00D+00 EMaxC= 1.00D-01 BMatC= 2.08D-12 BMatP= 7.73D-12
 IDIUse=1 WtCom= 1.00D+00 WtEn= 0.00D+00
 Coeff-Com: -0.664D-03 0.395D-02 0.138D-01-0.939D-02-0.461D-01-0.724D-01
 Coeff-Com:  0.355D+00 0.756D+00
 Coeff:     -0.664D-03 0.395D-02 0.138D-01-0.939D-02-0.461D-01-0.724D-01
 Coeff:      0.355D+00 0.756D+00
 Gap=     0.327 Goal=   None    Shift=    0.000
 RMSDP=1.86D-08 MaxDP=3.21D-07 DE=-2.50D-11 OVMax= 1.21D-06

 Cycle  17  Pass 1  IDiag  1:
 E= -399.498661687441     Delta-E=       -0.000000000005 Rises=F Damp=F
 DIIS: error= 3.95D-08 at cycle   9 NSaved=   9.
 NSaved= 9 IEnMin= 9 EnMin= -399.498661687441     IErMin= 9 ErrMin= 3.95D-08
 ErrMax= 3.95D-08  0.00D+00 EMaxC= 1.00D-01 BMatC= 1.78D-13 BMatP= 2.08D-12
 IDIUse=1 WtCom= 1.00D+00 WtEn= 0.00D+00
 Coeff-Com: -0.735D-03 0.242D-02 0.892D-02 0.371D-02-0.171D-01-0.452D-01
 Coeff-Com: -0.477D-03 0.236D+00 0.812D+00
 Coeff:     -0.735D-03 0.242D-02 0.892D-02 0.371D-02-0.171D-01-0.452D-01
 Coeff:     -0.477D-03 0.236D+00 0.812D+00
 Gap=     0.327 Goal=   None    Shift=    0.000
 RMSDP=5.44D-09 MaxDP=1.04D-07 DE=-4.55D-12 OVMax= 2.96D-07

 SCF Done:  E(RwB97XD) =  -399.498661687     A.U. after   17 cycles
            NFock= 17  Conv=0.54D-08     -V/T= 2.0116
 KE= 3.949054103108D+02 PE=-1.661419357498D+03 EE= 5.003393292798D+02
 Leave Link  502 at Tue May 28 16:29:08 2024, MaxMem=   536870912 cpu:              44.7 elap:              12.1
 (Enter /software/gaussian/g16-c01/avx2/g16/l601.exe)
 Copying SCF densities to generalized density rwf, IOpCl= 0 IROHF=0.

 **********************************************************************

            Population analysis using the SCF Density.

 **********************************************************************

 Alpha  occ. eigenvalues --  -19.33745 -14.52811 -10.49238 -10.38125 -10.32556
 Alpha  occ. eigenvalues --  -10.32546 -10.32350 -10.32345 -10.32040  -1.09850
 Alpha  occ. eigenvalues --   -1.05479  -0.96680  -0.86690  -0.86222  -0.74107
 Alpha  occ. eigenvalues --   -0.72212  -0.66146  -0.61103  -0.57036  -0.56561
 Alpha  occ. eigenvalues --   -0.54661  -0.52872  -0.52040  -0.48778  -0.46649
 Alpha  occ. eigenvalues --   -0.46174  -0.45015  -0.40051  -0.39727  -0.34567
 Alpha  occ. eigenvalues --   -0.32401
 Alpha virt. eigenvalues --    0.00259   0.01790   0.04870   0.09720   0.10409
 Alpha virt. eigenvalues --    0.17100   0.22166   0.23183   0.23254   0.26043
 Alpha virt. eigenvalues --    0.26591   0.29919   0.35720   0.36522   0.38577
 Alpha virt. eigenvalues --    0.40766   0.50941   0.54569   0.57670   0.58246
 Alpha virt. eigenvalues --    0.60365   0.61324   0.61583   0.62198   0.65777
 Alpha virt. eigenvalues --    0.66637   0.66986   0.67367   0.68631   0.69158
 Alpha virt. eigenvalues --    0.69390   0.73238   0.73850   0.75996   0.83284
 Alpha virt. eigenvalues --    0.84598   0.89535   0.89669   0.92821   0.93040
 Alpha virt. eigenvalues --    0.95321   0.96326   0.98800   1.00368   1.02564
 Alpha virt. eigenvalues --    1.04941   1.06963   1.08168   1.09171   1.13786
 Alpha virt. eigenvalues --    1.16017   1.20852   1.24469   1.24940   1.25981
 Alpha virt. eigenvalues --    1.31313   1.35371   1.45509   1.45960   1.49771
 Alpha virt. eigenvalues --    1.50826   1.54024   1.55416   1.55945   1.56976
 Alpha virt. eigenvalues --    1.66231   1.67000   1.68340   1.83265   1.85447
 Alpha virt. eigenvalues --    1.86772   1.91779   1.92235   1.96152   1.97598
 Alpha virt. eigenvalues --    2.00328   2.00793   2.03113   2.03481   2.06245
 Alpha virt. eigenvalues --    2.12290   2.17415   2.20352   2.20366   2.24065
 Alpha virt. eigenvalues --    2.28322   2.28331   2.35691   2.36275   2.42442
 Alpha virt. eigenvalues --    2.44962   2.61131   2.65941   2.68109   2.69587
 Alpha virt. eigenvalues --    2.70820   2.75761   2.79607   2.80736   2.83065
 Alpha virt. eigenvalues --    2.90262   3.00006   3.09074   3.23796   3.48195
 Alpha virt. eigenvalues --    3.93382   4.16466   4.19778   4.20936   4.34636
 Alpha virt. eigenvalues --    4.41026   4.43378   4.52810   4.77338
          Condensed to atoms (all electrons):
               1          2          3          4          5          6
     1  C    4.891513   0.506715  -0.012623  -0.034568  -0.030853   0.546683
     2  C    0.506715   5.038771   0.526555  -0.066241  -0.039128  -0.037536
     3  C   -0.012623   0.526555   4.575335   0.553025  -0.021351  -0.033065
     4  C   -0.034568  -0.066241   0.553025   4.946609   0.533422  -0.040829
     5  C   -0.030853  -0.039128  -0.021351   0.533422   4.875526   0.549161
     6  C    0.546683  -0.037536  -0.033065  -0.040829   0.549161   4.867214
     7  H    0.370874  -0.032373   0.002691   0.000538   0.003609  -0.035830
     8  H   -0.035522   0.367282  -0.045109   0.003858   0.000169   0.003923
     9  H   -0.000099   0.005393  -0.033205   0.364754  -0.037496   0.003993
    10  H    0.003693   0.000515   0.002853  -0.034439   0.372808  -0.036514
    11  H   -0.037449   0.004035   0.000529   0.003707  -0.037353   0.372849
    12  N    0.006208  -0.071951   0.292335  -0.057257   0.003687  -0.000079
    13  C    0.000479  -0.008850  -0.050204   0.002639  -0.000111   0.000033
    14  O   -0.000010  -0.001394  -0.001669  -0.000036  -0.000000   0.000000
               7          8          9         10         11         12
     1  C    0.370874  -0.035522  -0.000099   0.003693  -0.037449   0.006208
     2  C   -0.032373   0.367282   0.005393   0.000515   0.004035  -0.071951
     3  C    0.002691  -0.045109  -0.033205   0.002853   0.000529   0.292335
     4  C    0.000538   0.003858   0.364754  -0.034439   0.003707  -0.057257
     5  C    0.003609   0.000169  -0.037496   0.372808  -0.037353   0.003687
     6  C   -0.035830   0.003923   0.003993  -0.036514   0.372849  -0.000079
     7  H    0.512090  -0.003628   0.000011  -0.000144  -0.003745  -0.000067
     8  H   -0.003628   0.512642  -0.000091   0.000011  -0.000124  -0.013821
     9  H    0.000011  -0.000091   0.509638  -0.004087  -0.000122  -0.002451
    10  H   -0.000144   0.000011  -0.004087   0.515041  -0.003710  -0.000072
    11  H   -0.003745  -0.000124  -0.000122  -0.003710   0.522286   0.000003
    12  N   -0.000067  -0.013821  -0.002451  -0.000072   0.000003   6.900925
    13  C   -0.000019   0.009522   0.000121   0.000001  -0.000000   0.470786
    14  O   -0.000000   0.005132   0.000000  -0.000000   0.000000  -0.035057
              13         14
     1  C    0.000479  -0.000010
     2  C   -0.008850  -0.001394
     3  C   -0.050204  -0.001669
     4  C    0.002639  -0.000036
     5  C   -0.000111  -0.000000
     6  C    0.000033   0.000000
     7  H   -0.000019  -0.000000
     8  H    0.009522   0.005132
     9  H    0.000121   0.000000
    10  H    0.000001  -0.000000
    11  H   -0.000000   0.000000
    12  N    0.470786  -0.035057
    13  C    4.527838   0.386409
    14  O    0.386409   8.123119
 Mulliken charges:
               1
     1  C   -0.175042
     2  C   -0.191791
     3  C    0.243904
     4  C   -0.175183
     5  C   -0.172089
     6  C   -0.160001
     7  H    0.185993
     8  H    0.195756
     9  H    0.193639
    10  H    0.184045
    11  H    0.179094
    12  N   -0.493188
    13  C    0.661357
    14  O   -0.476495
 Sum of Mulliken charges =  -0.00000
 Mulliken charges with hydrogens summed into heavy atoms:
               1
     1  C    0.010952
     2  C    0.003966
     3  C    0.243904
     4  C    0.018457
     5  C    0.011955
     6  C    0.019093
    12  N   -0.493188
    13  C    0.661357
    14  O   -0.476495
 Electronic spatial extent (au):  <R**2>=           1563.5517
 Charge=             -0.0000 electrons
 Dipole moment (field-independent basis, Debye):
    X=             -3.5577    Y=              0.7470    Z=              0.1000  Tot=              3.6366
 Quadrupole moment (field-independent basis, Debye-Ang):
   XX=            -61.7440   YY=            -47.6946   ZZ=            -53.4847
   XY=              4.4396   XZ=              0.1137   YZ=             -0.9871
 Traceless Quadrupole moment (field-independent basis, Debye-Ang):
   XX=             -7.4362   YY=              6.6131   ZZ=              0.8231
   XY=              4.4396   XZ=              0.1137   YZ=             -0.9871
 Octapole moment (field-independent basis, Debye-Ang**2):
  XXX=           -229.6277  YYY=             13.8105  ZZZ=             16.3233  XYY=            -64.0249
  XXY=             29.4822  XXZ=              7.2665  XZZ=            -48.7676  YZZ=              3.3187
  YYZ=              5.4257  XYZ=              0.1697
 Hexadecapole moment (field-independent basis, Debye-Ang**3):
 XXXX=          -1869.2970 YYYY=           -345.7981 ZZZZ=            -62.1127 XXXY=            223.2328
 XXXZ=             43.5218 YYYX=            102.4471 YYYZ=              7.4319 ZZZX=             38.1408
 ZZZY=             15.5040 XXYY=           -363.7374 XXZZ=           -272.8852 YYZZ=            -77.6466
 XXYZ=              0.7335 YYXZ=             14.5480 ZZXY=             31.8073
 N-N= 3.666759562198D+02 E-N=-1.661419358811D+03  KE= 3.949054103108D+02
 No NMR shielding tensors so no spin-rotation constants.
 Leave Link  601 at Tue May 28 16:29:08 2024, MaxMem=   536870912 cpu:               0.9 elap:               0.3
 (Enter /software/gaussian/g16-c01/avx2/g16/l701.exe)
 ... and contract with generalized density number  0.
 Compute integral first derivatives.
 R6Disp: Adding Grimme-D2 dispersion energy 1st derivatives to the gradient.
 Leave Link  701 at Tue May 28 16:29:08 2024, MaxMem=   536870912 cpu:               0.8 elap:               0.2
 (Enter /software/gaussian/g16-c01/avx2/g16/l702.exe)
 L702 exits ... SP integral derivatives will be done elsewhere.
 Leave Link  702 at Tue May 28 16:29:08 2024, MaxMem=   536870912 cpu:               0.1 elap:               0.0
 (Enter /software/gaussian/g16-c01/avx2/g16/l703.exe)
 Integral derivatives from FoFJK, PRISM(SPDF).
 Compute integral first derivatives, UseDBF=F ICtDFT=           0.
 Calling FoFJK, ICntrl=      2127 FMM=F ISym2X=0 I1Cent= 0 IOpClX= 0 NMat=1 NMatS=1 NMatT=0.
 FoFJK:  IHMeth= 1 ICntrl=    2127 DoSepK=T KAlg= 0 I1Cent=           0 FoldK=F
 IRaf=         1 NMat=       1 IRICut=       1 DoRegI=T DoRafI=F ISym2E= 0 IDoP0=0 IntGTp=1.
 FoFCou: FMM=F IPFlag=           0 FMFlag=      100000 FMFlg1=         800
         NFxFlg=           0 DoJE=F BraDBF=F KetDBF=F FulRan=T
         wScrn=  0.000000 ICntrl=      2527 IOpCl=  0 I1Cent=           0 NGrid=           0
         NMat0=    1 NMatS0=      1 NMatT0=    0 NMatD0=    1 NMtDS0=    0 NMtDT0=    0
 Symmetry not used in FoFCou.
 Leave Link  703 at Tue May 28 16:29:13 2024, MaxMem=   536870912 cpu:              17.4 elap:               4.4
 (Enter /software/gaussian/g16-c01/avx2/g16/l716.exe)
 Dipole        =-1.39970124D+00 2.93896149D-01 3.93434145D-02
 -------------------------------------------------------------------
 Center     Atomic                   Forces (Hartrees/Bohr)
 Number     Number              X              Y              Z
 -------------------------------------------------------------------
      1        6           0.008524395    0.021440981   -0.003056142
      2        6          -0.017396027    0.010225335   -0.000167818
      3        6           0.007417013   -0.001120911   -0.000287237
      4        6          -0.000935602   -0.011538258    0.001417076
      5        6           0.015501389   -0.019552208    0.001481728
      6        6           0.017669708    0.005183863   -0.001568605
      7        1          -0.001997145   -0.010048659    0.001308468
      8        1           0.007816813   -0.008899014    0.000616664
      9        1           0.004578282    0.009055850   -0.001292180
     10        1          -0.006502667    0.009046666   -0.000738546
     11        1          -0.010243836   -0.001967760    0.000790408
     12        7           0.057603131   -0.095658924    0.008300385
     13        6           0.062233138   -0.078490922    0.006183558
     14        8          -0.144268592    0.172323960   -0.012987759
 -------------------------------------------------------------------
 Cartesian Forces:  Max     0.172323960 RMS     0.042533193
 Leave Link  716 at Tue May 28 16:29:13 2024, MaxMem=   536870912 cpu:               0.1 elap:               0.0
 (Enter /software/gaussian/g16-c01/avx2/g16/l103.exe)

 GradGradGradGradGradGradGradGradGradGradGradGradGradGradGradGradGradGrad
 Berny optimization.
 FormGI is forming the generalized inverse of G from B-inverse, IUseBI=4.
 Internal  Forces:  Max     0.225055435 RMS     0.033631831
 Search for a local minimum.
 Step number   1 out of a maximum of   71
 All quantities printed in internal units (Hartrees-Bohrs-Radians)
 RMS Force = .33632D-01 SwitMx=.10000D-02 MixMth= 1
 Mixed Optimization -- RFO/linear search
 Second derivative matrix not updated -- first step.
 ITU=  0
     Eigenvalues ---    0.00753   0.01277   0.01277   0.01821   0.02053
     Eigenvalues ---    0.02055   0.02057   0.02060   0.02062   0.02064
     Eigenvalues ---    0.02065   0.02066   0.16000   0.16000   0.16000
     Eigenvalues ---    0.16000   0.16000   0.22000   0.22000   0.23485
     Eigenvalues ---    0.25000   0.25000   0.35624   0.37095   0.37112
     Eigenvalues ---    0.37120   0.37218   0.37281   0.40794   0.41148
     Eigenvalues ---    0.41376   0.45142   0.45253   0.45280   0.45380
     Eigenvalues ---    0.68989
 RFO step:  Lambda=-1.21850974D-01 EMin= 7.52997098D-03
 Linear search not attempted -- first point.
 Maximum step size (   0.300) exceeded in Quadratic search.
    -- Step size scaled by   0.629
 Iteration  1 RMS(Cart)=  0.05971181 RMS(Int)=  0.01044078
 Iteration  2 RMS(Cart)=  0.01058192 RMS(Int)=  0.00003536
 Iteration  3 RMS(Cart)=  0.00007186 RMS(Int)=  0.00000127
 Iteration  4 RMS(Cart)=  0.00000001 RMS(Int)=  0.00000127
 ITry= 1 IFail=0 DXMaxC= 3.92D-01 DCOld= 1.00D+10 DXMaxT= 3.00D-01 DXLimC= 3.00D+00 Rises=F
 Variable       Old X    -DE/DX   Delta X   Delta X   Delta X     New X
                                 (Linear)    (Quad)   (Total)
    R1        2.64952  -0.01238   0.00000  -0.01348  -0.01348   2.63603
    R2        2.64829  -0.00782   0.00000  -0.00852  -0.00852   2.63976
    R3        2.02365   0.01025   0.00000   0.01308   0.01308   2.03673
    R4        2.65170  -0.00698   0.00000  -0.00762  -0.00762   2.64408
    R5        2.02219   0.01186   0.00000   0.01510   0.01510   2.03729
    R6        2.64845  -0.01284   0.00000  -0.01405  -0.01405   2.63440
    R7        2.77973  -0.02435   0.00000  -0.03203  -0.03203   2.74770
    R8        2.65000  -0.01099   0.00000  -0.01211  -0.01211   2.63789
    R9        2.02403   0.01011   0.00000   0.01291   0.01291   2.03694
   R10        2.65033  -0.00965   0.00000  -0.01062  -0.01063   2.63971
   R11        2.02125   0.01110   0.00000   0.01411   0.01411   2.03535
   R12        2.02378   0.01046   0.00000   0.01334   0.01334   2.03713
   R13        2.44464  -0.12481   0.00000  -0.09670  -0.09670   2.34794
   R14        2.70488  -0.22506   0.00000  -0.26716  -0.26716   2.43772
    A1        2.09373   0.00091   0.00000   0.00194   0.00194   2.09567
    A2        2.09545  -0.00170   0.00000  -0.00376  -0.00376   2.09169
    A3        2.09401   0.00080   0.00000   0.00182   0.00182   2.09582
    A4        2.09514  -0.00357   0.00000  -0.00624  -0.00624   2.08890
    A5        2.09379   0.00164   0.00000   0.00280   0.00280   2.09659
    A6        2.09425   0.00192   0.00000   0.00344   0.00344   2.09769
    A7        2.09423   0.00472   0.00000   0.00814   0.00814   2.10238
    A8        2.09512   0.01094   0.00000   0.01844   0.01843   2.11356
    A9        2.09383  -0.01567   0.00000  -0.02657  -0.02658   2.06725
   A10        2.09337  -0.00299   0.00000  -0.00554  -0.00554   2.08783
   A11        2.09436  -0.00005   0.00000  -0.00069  -0.00069   2.09368
   A12        2.09546   0.00305   0.00000   0.00623   0.00623   2.10168
   A13        2.09556   0.00140   0.00000   0.00250   0.00250   2.09805
   A14        2.09391  -0.00195   0.00000  -0.00403  -0.00403   2.08987
   A15        2.09372   0.00055   0.00000   0.00153   0.00154   2.09526
   A16        2.09434  -0.00047   0.00000  -0.00080  -0.00080   2.09354
   A17        2.09361   0.00038   0.00000   0.00071   0.00071   2.09432
   A18        2.09523   0.00010   0.00000   0.00009   0.00009   2.09532
   A19        2.09187   0.01788   0.00000   0.03024   0.03024   2.12211
   A20        3.13070   0.01409   0.00000   0.06582   0.06582   3.19652
   A21        3.14217  -0.00003   0.00000  -0.00013  -0.00013   3.14204
    D1        0.00053  -0.00002   0.00000  -0.00007  -0.00007   0.00047
    D2        3.14070   0.00002   0.00000   0.00008   0.00008   3.14078
    D3       -3.14127  -0.00001   0.00000  -0.00006  -0.00006  -3.14132
    D4       -0.00110   0.00002   0.00000   0.00009   0.00009  -0.00101
    D5       -0.00005   0.00000   0.00000   0.00001   0.00001  -0.00004
    D6        3.14145   0.00000   0.00000   0.00002   0.00002   3.14147
    D7       -3.14144  -0.00000   0.00000   0.00000   0.00000  -3.14144
    D8        0.00007   0.00000   0.00000   0.00001   0.00001   0.00008
    D9       -0.00090   0.00002   0.00000   0.00010   0.00010  -0.00080
   D10        3.14061   0.00002   0.00000   0.00011   0.00011   3.14072
   D11       -3.14106  -0.00001   0.00000  -0.00004  -0.00004  -3.14111
   D12        0.00045  -0.00001   0.00000  -0.00004  -0.00004   0.00041
   D13        0.00078  -0.00002   0.00000  -0.00008  -0.00008   0.00069
   D14       -3.14046  -0.00002   0.00000  -0.00011  -0.00011  -3.14057
   D15       -3.14073  -0.00002   0.00000  -0.00009  -0.00009  -3.14083
   D16        0.00121  -0.00003   0.00000  -0.00012  -0.00012   0.00109
   D17        0.00006   0.00001   0.00000   0.00004   0.00004   0.00011
   D18        3.14158   0.00001   0.00000   0.00005   0.00005  -3.14156
   D19       -0.00030   0.00001   0.00000   0.00003   0.00003  -0.00026
   D20        3.14143   0.00001   0.00000   0.00003   0.00003   3.14146
   D21        3.14094   0.00001   0.00000   0.00005   0.00005   3.14100
   D22       -0.00051   0.00001   0.00000   0.00005   0.00005  -0.00047
   D23       -0.00007   0.00000   0.00000   0.00001   0.00001  -0.00006
   D24       -3.14157  -0.00000   0.00000  -0.00000  -0.00000  -3.14157
   D25        3.14139   0.00000   0.00000   0.00001   0.00001   3.14141
   D26       -0.00011   0.00000   0.00000   0.00001   0.00001  -0.00011
         Item               Value     Threshold  Converged?
 Maximum Force            0.225055     0.000450     NO 
 RMS     Force            0.033632     0.000300     NO 
 Maximum Displacement     0.391789     0.001800     NO 
 RMS     Displacement     0.064008     0.001200     NO 
 Predicted change in Energy=-5.801927D-02
 Lowest energy point so far.  Saving SCF results.
 GradGradGradGradGradGradGradGradGradGradGradGradGradGradGradGradGradGrad

 Leave Link  103 at Tue May 28 16:29:13 2024, MaxMem=   536870912 cpu:               0.1 elap:               0.0
 (Enter /software/gaussian/g16-c01/avx2/g16/l202.exe)
                          Input orientation:                          
 ---------------------------------------------------------------------
 Center     Atomic      Atomic             Coordinates (Angstroms)
 Number     Number       Type             X           Y           Z
 ---------------------------------------------------------------------
      1          6           0       -0.618312   -1.254069    0.122481
      2          6           0        0.750352   -1.005350    0.018920
      3          6           0        1.204679    0.305658   -0.161554
      4          6           0        0.299328    1.362876   -0.239316
      5          6           0       -1.069237    1.108403   -0.135201
      6          6           0       -1.529467   -0.198029    0.045567
      7          1           0       -0.971103   -2.262912    0.261784
      8          1           0        1.454347   -1.819639    0.078914
      9          1           0        0.658122    2.369613   -0.379396
     10          1           0       -1.770383    1.923815   -0.194894
     11          1           0       -2.586906   -0.391673    0.125638
     12          7           0        2.624296    0.599981   -0.272199
     13          6           0        3.481663   -0.297191   -0.210988
     14          8           0        4.421620   -1.178928   -0.155502
 ---------------------------------------------------------------------
                    Distance matrix (angstroms):
                    1          2          3          4          5
     1  C    0.000000
     2  C    1.394929   0.000000
     3  C    2.415931   1.399188   0.000000
     4  C    2.796670   2.424583   1.394065   0.000000
     5  C    2.418885   2.793315   2.411594   1.395910   0.000000
     6  C    1.396903   2.418688   2.787858   2.421172   1.396873
     7  H    1.077790   2.145659   3.392757   3.874460   3.396026
     8  H    2.148879   1.078088   2.153381   3.400550   3.871402
     9  H    3.874563   3.399638   2.146180   1.077903   2.152684
    10  H    3.395134   3.870378   3.386818   2.144838   1.077063
    11  H    2.149208   3.394890   3.865859   3.397349   2.149787
    12  N    3.756032   2.484654   1.454022   2.447154   3.730877
    13  C    4.223341   2.830972   2.355955   3.589412   4.763625
    14  O    5.048152   3.679505   3.542985   4.843664   5.948260
                    6          7          8          9         10
     6  C    0.000000
     7  H    2.149945   0.000000
     8  H    3.396156   2.472395   0.000000
     9  H    3.399842   4.952351   4.288806   0.000000
    10  H    2.148973   4.286734   4.948464   2.475967   0.000000
    11  H    1.078001   2.476063   4.286373   4.290683   2.476072
    12  N    4.241644   4.626899   2.710466   2.647438   4.590393
    13  C    5.018673   4.890266   2.551843   3.887491   5.702377
    14  O    6.034735   5.516395   3.044696   5.177470   6.925999
                   11         12         13         14
    11  H    0.000000
    12  N    5.319612   0.000000
    13  C    6.078632   1.242474   0.000000
    14  O    7.058204   2.531504   1.289984   0.000000
 Symmetry turned off by external request.
 Stoichiometry    C7H5NO
 Framework group  C1[X(C7H5NO)]
 Deg. of freedom    36
 Full point group                 C1      NOp   1
 Rotational constants (GHZ):           4.7691806           1.0125336           0.8352118
 Leave Link  202 at Tue May 28 16:29:13 2024, MaxMem=   536870912 cpu:               0.0 elap:               0.0
 (Enter /software/gaussian/g16-c01/avx2/g16/l301.exe)
 Standard basis: 6-31G(d) (6D, 7F)
 Ernie: Thresh=  0.10000D-02 Tol=  0.10000D-05 Strict=F.
   145 basis functions,   272 primitive gaussians,   145 cartesian basis functions
    31 alpha electrons       31 beta electrons
       nuclear repulsion energy       372.1186079631 Hartrees.
 IExCor= 4639 DFT=T Ex+Corr=wB97XD ExCW=0 ScaHFX=  1.000000
 ScaDFX=  1.000000  1.000000  1.000000  1.000000 ScalE2=  1.000000  1.000000
 IRadAn=      5 IRanWt=     -1 IRanGd=            0 ICorTp=0 IEmpDi=121
 HFx  wShort=  0.000000 wLong=  0.200000 cFull=  0.222036 cShort=  0.000000 cLong=  0.777964
 DFx  wShort=  0.000000 wLong=  0.200000 cFull=  0.000000 cShort=  0.000000 cLong=  1.000000
 NAtoms=   14 NActive=   14 NUniq=   14 SFac= 1.00D+00 NAtFMM=   60 NAOKFM=F Big=F
 Integral buffers will be    131072 words long.
 Raffenetti 2 integral format.
 Two-electron integral symmetry is turned off.
 R6Disp:  Grimme-D2 Dispersion energy=       -0.0058134563 Hartrees.
 Nuclear repulsion after empirical dispersion term =      372.1127945068 Hartrees.
 Leave Link  301 at Tue May 28 16:29:13 2024, MaxMem=   536870912 cpu:               0.3 elap:               0.1
 (Enter /software/gaussian/g16-c01/avx2/g16/l302.exe)
 NPDir=0 NMtPBC=     1 NCelOv=     1 NCel=       1 NClECP=     1 NCelD=      1
         NCelK=      1 NCelE2=     1 NClLst=     1 CellRange=     0.0.
 One-electron integrals computed using PRISM.
 NBasis=   145 RedAO= T EigKep=  4.65D-04  NBF=   145
 NBsUse=   145 1.00D-06 EigRej= -1.00D+00 NBFU=   145
 Precomputing XC quadrature grid using
 IXCGrd= 4 IRadAn=           5 IRanWt=          -1 IRanGd=           0 AccXCQ= 0.00D+00.
 Generated NRdTot=       0 NPtTot=           0 NUsed=           0 NTot=          32
 NSgBfM=   145   145   145   145   145 MxSgAt=    14 MxSgA2=    14.
 Leave Link  302 at Tue May 28 16:29:13 2024, MaxMem=   536870912 cpu:               1.4 elap:               0.4
 (Enter /software/gaussian/g16-c01/avx2/g16/l303.exe)
 DipDrv:  MaxL=1.
 Leave Link  303 at Tue May 28 16:29:13 2024, MaxMem=   536870912 cpu:               0.1 elap:               0.0
 (Enter /software/gaussian/g16-c01/avx2/g16/l401.exe)
 Initial guess from the checkpoint file:  "geometry.chk"
 B after Tr=    -0.008065   -0.005333    0.001085
         Rot=    0.999982   -0.000322   -0.000724   -0.005992 Ang=  -0.69 deg.
 Guess basis will be translated and rotated to current coordinates.
 JPrj=2 DoOrth=T DoCkMO=T.
 Generating alternative initial guess.
 ExpMin= 1.61D-01 ExpMax= 5.48D+03 ExpMxC= 8.25D+02 IAcc=3 IRadAn=         5 AccDes= 0.00D+00
 Harris functional with IExCor= 4639 and IRadAn=       5 diagonalized for initial guess.
 HarFok:  IExCor= 4639 AccDes= 0.00D+00 IRadAn=         5 IDoV= 1 UseB2=F ITyADJ=14
 ICtDFT=  3500011 ScaDFX=  1.000000  1.000000  1.000000  1.000000
 FoFCou: FMM=F IPFlag=           0 FMFlag=      100000 FMFlg1=           0
         NFxFlg=           0 DoJE=T BraDBF=F KetDBF=T FulRan=T
         wScrn=  0.000000 ICntrl=       500 IOpCl=  0 I1Cent=   200000004 NGrid=           0
         NMat0=    1 NMatS0=      1 NMatT0=    0 NMatD0=    1 NMtDS0=    0 NMtDT0=    0
 Symmetry not used in FoFCou.
 Harris En= -382.761548590365    
 Leave Link  401 at Tue May 28 16:29:14 2024, MaxMem=   536870912 cpu:               4.3 elap:               1.1
 (Enter /software/gaussian/g16-c01/avx2/g16/l502.exe)
 Keep R1 ints in memory in canonical form, NReq=117498978.
 FoFCou: FMM=F IPFlag=           0 FMFlag=           0 FMFlg1=           0
         NFxFlg=           0 DoJE=F BraDBF=F KetDBF=F FulRan=T
         wScrn=  0.000000 ICntrl=       600 IOpCl=  0 I1Cent=           0 NGrid=           0
         NMat0=    1 NMatS0=  10585 NMatT0=    0 NMatD0=    1 NMtDS0=    0 NMtDT0=    0
 Symmetry not used in FoFCou.
 Two-electron integral symmetry not used.
 Closed shell SCF:
 Using DIIS extrapolation, IDIIS=  1040.
 NGot=   536870912 LenX=   424773563 LenY=   424752097
 Requested convergence on RMS density matrix=1.00D-08 within 128 cycles.
 Requested convergence on MAX density matrix=1.00D-06.
 Requested convergence on             energy=1.00D-06.
 No special actions if energy rises.
 Integral accuracy reduced to 1.0D-05 until final iterations.

 Cycle   1  Pass 0  IDiag  1:
 E= -399.546797720080    
 DIIS: error= 6.89D-03 at cycle   1 NSaved=   1.
 NSaved= 1 IEnMin= 1 EnMin= -399.546797720080     IErMin= 1 ErrMin= 6.89D-03
 ErrMax= 6.89D-03  0.00D+00 EMaxC= 1.00D-01 BMatC= 1.16D-02 BMatP= 1.16D-02
 IDIUse=3 WtCom= 9.31D-01 WtEn= 6.89D-02
 Coeff-Com:  0.100D+01
 Coeff-En:   0.100D+01
 Coeff:      0.100D+01
 Gap=     2.048 Goal=   None    Shift=    0.000
 GapD=    2.048 DampG=2.000 DampE=1.000 DampFc=2.0000 IDamp=-1.
 RMSDP=1.16D-03 MaxDP=2.99D-02              OVMax= 3.09D-02

 Cycle   2  Pass 0  IDiag  1:
 E= -399.563279042785     Delta-E=       -0.016481322705 Rises=F Damp=F
 DIIS: error= 3.03D-03 at cycle   2 NSaved=   2.
 NSaved= 2 IEnMin= 2 EnMin= -399.563279042785     IErMin= 2 ErrMin= 3.03D-03
 ErrMax= 3.03D-03  0.00D+00 EMaxC= 1.00D-01 BMatC= 1.25D-03 BMatP= 1.16D-02
 IDIUse=3 WtCom= 9.70D-01 WtEn= 3.03D-02
 Coeff-Com:  0.747D-01 0.925D+00
 Coeff-En:   0.000D+00 0.100D+01
 Coeff:      0.725D-01 0.928D+00
 Gap=     0.355 Goal=   None    Shift=    0.000
 RMSDP=4.47D-04 MaxDP=1.71D-02 DE=-1.65D-02 OVMax= 1.85D-02

 Cycle   3  Pass 0  IDiag  1:
 E= -399.563934686150     Delta-E=       -0.000655643365 Rises=F Damp=F
 DIIS: error= 2.78D-03 at cycle   3 NSaved=   3.
 NSaved= 3 IEnMin= 3 EnMin= -399.563934686150     IErMin= 3 ErrMin= 2.78D-03
 ErrMax= 2.78D-03  0.00D+00 EMaxC= 1.00D-01 BMatC= 1.41D-03 BMatP= 1.25D-03
 IDIUse=3 WtCom= 1.59D-01 WtEn= 8.41D-01
 Coeff-Com: -0.604D-01 0.535D+00 0.525D+00
 Coeff-En:   0.000D+00 0.298D+00 0.702D+00
 Coeff:     -0.962D-02 0.336D+00 0.674D+00
 Gap=     0.355 Goal=   None    Shift=    0.000
 RMSDP=3.22D-04 MaxDP=1.24D-02 DE=-6.56D-04 OVMax= 1.60D-02

 Cycle   4  Pass 0  IDiag  1:
 E= -399.564335443652     Delta-E=       -0.000400757502 Rises=F Damp=F
 DIIS: error= 2.75D-03 at cycle   4 NSaved=   4.
 NSaved= 4 IEnMin= 4 EnMin= -399.564335443652     IErMin= 4 ErrMin= 2.75D-03
 ErrMax= 2.75D-03  0.00D+00 EMaxC= 1.00D-01 BMatC= 8.85D-04 BMatP= 1.25D-03
 IDIUse=3 WtCom= 9.72D-01 WtEn= 2.75D-02
 Coeff-Com: -0.453D-01 0.822D-01 0.470D+00 0.494D+00
 Coeff-En:   0.000D+00 0.000D+00 0.404D+00 0.596D+00
 Coeff:     -0.440D-01 0.799D-01 0.468D+00 0.496D+00
 Gap=     0.355 Goal=   None    Shift=    0.000
 RMSDP=1.53D-04 MaxDP=6.11D-03 DE=-4.01D-04 OVMax= 7.82D-03

 Cycle   5  Pass 0  IDiag  1:
 E= -399.565050532715     Delta-E=       -0.000715089063 Rises=F Damp=F
 DIIS: error= 2.72D-04 at cycle   5 NSaved=   5.
 NSaved= 5 IEnMin= 5 EnMin= -399.565050532715     IErMin= 5 ErrMin= 2.72D-04
 ErrMax= 2.72D-04  0.00D+00 EMaxC= 1.00D-01 BMatC= 8.08D-06 BMatP= 8.85D-04
 IDIUse=3 WtCom= 9.97D-01 WtEn= 2.72D-03
 Coeff-Com: -0.214D-02-0.383D-01 0.275D-01 0.120D+00 0.893D+00
 Coeff-En:   0.000D+00 0.000D+00 0.000D+00 0.000D+00 0.100D+01
 Coeff:     -0.213D-02-0.382D-01 0.275D-01 0.120D+00 0.893D+00
 Gap=     0.355 Goal=   None    Shift=    0.000
 RMSDP=3.39D-05 MaxDP=1.05D-03 DE=-7.15D-04 OVMax= 1.17D-03

 Cycle   6  Pass 0  IDiag  1:
 E= -399.565060316872     Delta-E=       -0.000009784157 Rises=F Damp=F
 DIIS: error= 9.83D-05 at cycle   6 NSaved=   6.
 NSaved= 6 IEnMin= 6 EnMin= -399.565060316872     IErMin= 6 ErrMin= 9.83D-05
 ErrMax= 9.83D-05  0.00D+00 EMaxC= 1.00D-01 BMatC= 1.82D-06 BMatP= 8.08D-06
 IDIUse=1 WtCom= 1.00D+00 WtEn= 0.00D+00
 Coeff-Com:  0.536D-02-0.292D-01-0.519D-01-0.380D-02 0.441D+00 0.639D+00
 Coeff:      0.536D-02-0.292D-01-0.519D-01-0.380D-02 0.441D+00 0.639D+00
 Gap=     0.355 Goal=   None    Shift=    0.000
 RMSDP=1.17D-05 MaxDP=3.51D-04 DE=-9.78D-06 OVMax= 4.73D-04

 Cycle   7  Pass 0  IDiag  1:
 E= -399.565062167197     Delta-E=       -0.000001850325 Rises=F Damp=F
 DIIS: error= 2.80D-05 at cycle   7 NSaved=   7.
 NSaved= 7 IEnMin= 7 EnMin= -399.565062167197     IErMin= 7 ErrMin= 2.80D-05
 ErrMax= 2.80D-05  0.00D+00 EMaxC= 1.00D-01 BMatC= 1.50D-07 BMatP= 1.82D-06
 IDIUse=1 WtCom= 1.00D+00 WtEn= 0.00D+00
 Coeff-Com:  0.201D-02-0.711D-02-0.226D-01-0.122D-01 0.746D-01 0.258D+00
 Coeff-Com:  0.708D+00
 Coeff:      0.201D-02-0.711D-02-0.226D-01-0.122D-01 0.746D-01 0.258D+00
 Coeff:      0.708D+00
 Gap=     0.355 Goal=   None    Shift=    0.000
 RMSDP=3.79D-06 MaxDP=8.67D-05 DE=-1.85D-06 OVMax= 2.16D-04

 Initial convergence to 1.0D-05 achieved.  Increase integral accuracy.
 Cycle   8  Pass 1  IDiag  1:
 E= -399.565084223427     Delta-E=       -0.000022056230 Rises=F Damp=F
 DIIS: error= 2.18D-05 at cycle   1 NSaved=   1.
 NSaved= 1 IEnMin= 1 EnMin= -399.565084223427     IErMin= 1 ErrMin= 2.18D-05
 ErrMax= 2.18D-05  0.00D+00 EMaxC= 1.00D-01 BMatC= 1.53D-07 BMatP= 1.53D-07
 IDIUse=1 WtCom= 1.00D+00 WtEn= 0.00D+00
 Coeff-Com:  0.100D+01
 Coeff:      0.100D+01
 Gap=     0.355 Goal=   None    Shift=    0.000
 RMSDP=3.79D-06 MaxDP=8.67D-05 DE=-2.21D-05 OVMax= 1.32D-04

 Cycle   9  Pass 1  IDiag  1:
 E= -399.565084385976     Delta-E=       -0.000000162548 Rises=F Damp=F
 DIIS: error= 8.05D-06 at cycle   2 NSaved=   2.
 NSaved= 2 IEnMin= 2 EnMin= -399.565084385976     IErMin= 2 ErrMin= 8.05D-06
 ErrMax= 8.05D-06  0.00D+00 EMaxC= 1.00D-01 BMatC= 1.64D-08 BMatP= 1.53D-07
 IDIUse=1 WtCom= 1.00D+00 WtEn= 0.00D+00
 Coeff-Com:  0.871D-01 0.913D+00
 Coeff:      0.871D-01 0.913D+00
 Gap=     0.355 Goal=   None    Shift=    0.000
 RMSDP=1.49D-06 MaxDP=3.74D-05 DE=-1.63D-07 OVMax= 7.60D-05

 Cycle  10  Pass 1  IDiag  1:
 E= -399.565084399730     Delta-E=       -0.000000013755 Rises=F Damp=F
 DIIS: error= 8.43D-06 at cycle   3 NSaved=   3.
 NSaved= 3 IEnMin= 3 EnMin= -399.565084399730     IErMin= 2 ErrMin= 8.05D-06
 ErrMax= 8.43D-06  0.00D+00 EMaxC= 1.00D-01 BMatC= 1.13D-08 BMatP= 1.64D-08
 IDIUse=1 WtCom= 1.00D+00 WtEn= 0.00D+00
 Coeff-Com: -0.597D-01 0.454D+00 0.606D+00
 Coeff:     -0.597D-01 0.454D+00 0.606D+00
 Gap=     0.355 Goal=   None    Shift=    0.000
 RMSDP=7.36D-07 MaxDP=2.81D-05 DE=-1.38D-08 OVMax= 4.23D-05

 Cycle  11  Pass 1  IDiag  1:
 E= -399.565084411236     Delta-E=       -0.000000011506 Rises=F Damp=F
 DIIS: error= 2.25D-06 at cycle   4 NSaved=   4.
 NSaved= 4 IEnMin= 4 EnMin= -399.565084411236     IErMin= 4 ErrMin= 2.25D-06
 ErrMax= 2.25D-06  0.00D+00 EMaxC= 1.00D-01 BMatC= 9.88D-10 BMatP= 1.13D-08
 IDIUse=1 WtCom= 1.00D+00 WtEn= 0.00D+00
 Coeff-Com: -0.313D-01 0.114D+00 0.266D+00 0.651D+00
 Coeff:     -0.313D-01 0.114D+00 0.266D+00 0.651D+00
 Gap=     0.355 Goal=   None    Shift=    0.000
 RMSDP=2.78D-07 MaxDP=8.83D-06 DE=-1.15D-08 OVMax= 1.99D-05

 Cycle  12  Pass 1  IDiag  1:
 E= -399.565084412686     Delta-E=       -0.000000001449 Rises=F Damp=F
 DIIS: error= 1.68D-06 at cycle   5 NSaved=   5.
 NSaved= 5 IEnMin= 5 EnMin= -399.565084412686     IErMin= 5 ErrMin= 1.68D-06
 ErrMax= 1.68D-06  0.00D+00 EMaxC= 1.00D-01 BMatC= 1.89D-10 BMatP= 9.88D-10
 IDIUse=1 WtCom= 1.00D+00 WtEn= 0.00D+00
 Coeff-Com:  0.580D-02-0.907D-01-0.649D-01 0.227D+00 0.923D+00
 Coeff:      0.580D-02-0.907D-01-0.649D-01 0.227D+00 0.923D+00
 Gap=     0.355 Goal=   None    Shift=    0.000
 RMSDP=2.22D-07 MaxDP=7.15D-06 DE=-1.45D-09 OVMax= 1.34D-05

 Cycle  13  Pass 1  IDiag  1:
 E= -399.565084413163     Delta-E=       -0.000000000477 Rises=F Damp=F
 DIIS: error= 8.28D-07 at cycle   6 NSaved=   6.
 NSaved= 6 IEnMin= 6 EnMin= -399.565084413163     IErMin= 6 ErrMin= 8.28D-07
 ErrMax= 8.28D-07  0.00D+00 EMaxC= 1.00D-01 BMatC= 1.04D-10 BMatP= 1.89D-10
 IDIUse=1 WtCom= 1.00D+00 WtEn= 0.00D+00
 Coeff-Com:  0.106D-01-0.860D-01-0.996D-01 0.119D-01 0.609D+00 0.554D+00
 Coeff:      0.106D-01-0.860D-01-0.996D-01 0.119D-01 0.609D+00 0.554D+00
 Gap=     0.355 Goal=   None    Shift=    0.000
 RMSDP=9.46D-08 MaxDP=3.01D-06 DE=-4.77D-10 OVMax= 7.73D-06

 Cycle  14  Pass 1  IDiag  1:
 E= -399.565084413297     Delta-E=       -0.000000000134 Rises=F Damp=F
 DIIS: error= 2.31D-07 at cycle   7 NSaved=   7.
 NSaved= 7 IEnMin= 7 EnMin= -399.565084413297     IErMin= 7 ErrMin= 2.31D-07
 ErrMax= 2.31D-07  0.00D+00 EMaxC= 1.00D-01 BMatC= 6.67D-12 BMatP= 1.04D-10
 IDIUse=1 WtCom= 1.00D+00 WtEn= 0.00D+00
 Coeff-Com:  0.228D-02-0.104D-01-0.183D-01-0.422D-01 0.152D-01 0.206D+00
 Coeff-Com:  0.847D+00
 Coeff:      0.228D-02-0.104D-01-0.183D-01-0.422D-01 0.152D-01 0.206D+00
 Coeff:      0.847D+00
 Gap=     0.355 Goal=   None    Shift=    0.000
 RMSDP=3.49D-08 MaxDP=1.25D-06 DE=-1.34D-10 OVMax= 2.45D-06

 Cycle  15  Pass 1  IDiag  1:
 E= -399.565084413310     Delta-E=       -0.000000000012 Rises=F Damp=F
 DIIS: error= 4.22D-08 at cycle   8 NSaved=   8.
 NSaved= 8 IEnMin= 8 EnMin= -399.565084413310     IErMin= 8 ErrMin= 4.22D-08
 ErrMax= 4.22D-08  0.00D+00 EMaxC= 1.00D-01 BMatC= 5.11D-13 BMatP= 6.67D-12
 IDIUse=1 WtCom= 1.00D+00 WtEn= 0.00D+00
 Coeff-Com: -0.468D-03 0.643D-02 0.618D-02-0.154D-01-0.683D-01 0.859D-02
 Coeff-Com:  0.234D+00 0.829D+00
 Coeff:     -0.468D-03 0.643D-02 0.618D-02-0.154D-01-0.683D-01 0.859D-02
 Coeff:      0.234D+00 0.829D+00
 Gap=     0.355 Goal=   None    Shift=    0.000
 RMSDP=1.09D-08 MaxDP=2.12D-07 DE=-1.23D-11 OVMax= 6.12D-07

 Cycle  16  Pass 1  IDiag  1:
 E= -399.565084413310     Delta-E=        0.000000000000 Rises=F Damp=F
 DIIS: error= 2.81D-08 at cycle   9 NSaved=   9.
 NSaved= 9 IEnMin= 8 EnMin= -399.565084413310     IErMin= 9 ErrMin= 2.81D-08
 ErrMax= 2.81D-08  0.00D+00 EMaxC= 1.00D-01 BMatC= 8.03D-14 BMatP= 5.11D-13
 IDIUse=1 WtCom= 1.00D+00 WtEn= 0.00D+00
 Coeff-Com: -0.409D-03 0.363D-02 0.453D-02-0.212D-02-0.292D-01-0.162D-01
 Coeff-Com:  0.724D-02 0.330D+00 0.703D+00
 Coeff:     -0.409D-03 0.363D-02 0.453D-02-0.212D-02-0.292D-01-0.162D-01
 Coeff:      0.724D-02 0.330D+00 0.703D+00
 Gap=     0.355 Goal=   None    Shift=    0.000
 RMSDP=2.95D-09 MaxDP=4.51D-08 DE= 0.00D+00 OVMax= 1.37D-07

 SCF Done:  E(RwB97XD) =  -399.565084413     A.U. after   16 cycles
            NFock= 16  Conv=0.30D-08     -V/T= 2.0106
 KE= 3.953843453350D+02 PE=-1.672779321252D+03 EE= 5.057170969971D+02
 Leave Link  502 at Tue May 28 16:29:26 2024, MaxMem=   536870912 cpu:              43.4 elap:              11.8
 (Enter /software/gaussian/g16-c01/avx2/g16/l701.exe)
 ... and contract with generalized density number  0.
 Compute integral first derivatives.
 R6Disp: Adding Grimme-D2 dispersion energy 1st derivatives to the gradient.
 Leave Link  701 at Tue May 28 16:29:26 2024, MaxMem=   536870912 cpu:               0.8 elap:               0.2
 (Enter /software/gaussian/g16-c01/avx2/g16/l702.exe)
 L702 exits ... SP integral derivatives will be done elsewhere.
 Leave Link  702 at Tue May 28 16:29:26 2024, MaxMem=   536870912 cpu:               0.1 elap:               0.0
 (Enter /software/gaussian/g16-c01/avx2/g16/l703.exe)
 Integral derivatives from FoFJK, PRISM(SPDF).
 Compute integral first derivatives, UseDBF=F ICtDFT=           0.
 Calling FoFJK, ICntrl=      2127 FMM=F ISym2X=0 I1Cent= 0 IOpClX= 0 NMat=1 NMatS=1 NMatT=0.
 FoFJK:  IHMeth= 1 ICntrl=    2127 DoSepK=T KAlg= 0 I1Cent=           0 FoldK=F
 IRaf=         1 NMat=       1 IRICut=       1 DoRegI=T DoRafI=F ISym2E= 0 IDoP0=0 IntGTp=1.
 FoFCou: FMM=F IPFlag=           0 FMFlag=      100000 FMFlg1=         800
         NFxFlg=           0 DoJE=F BraDBF=F KetDBF=F FulRan=T
         wScrn=  0.000000 ICntrl=      2527 IOpCl=  0 I1Cent=           0 NGrid=           0
         NMat0=    1 NMatS0=      1 NMatT0=    0 NMatD0=    1 NMtDS0=    0 NMtDT0=    0
 Symmetry not used in FoFCou.
 Leave Link  703 at Tue May 28 16:29:31 2024, MaxMem=   536870912 cpu:              17.3 elap:               4.3
 (Enter /software/gaussian/g16-c01/avx2/g16/l716.exe)
 Dipole        =-1.17978131D+00 1.38701828D-01 4.62350995D-02
 -------------------------------------------------------------------
 Center     Atomic                   Forces (Hartrees/Bohr)
 Number     Number              X              Y              Z
 -------------------------------------------------------------------
      1        6           0.004001425    0.011053718   -0.001570378
      2        6          -0.008299807    0.005424876   -0.000096220
      3        6           0.010504584    0.004356734   -0.001101443
      4        6          -0.002530980   -0.004706314    0.000683315
      5        6           0.007005456   -0.010205837    0.000822113
      6        6           0.008024086    0.002389977   -0.000713852
      7        1          -0.001083313   -0.005215835    0.000684780
      8        1           0.003921424   -0.004566916    0.000305031
      9        1           0.003009092    0.004032613   -0.000609840
     10        1          -0.003390048    0.004748965   -0.000387009
     11        1          -0.005181986   -0.000919375    0.000392374
     12        7           0.014393205   -0.046156439    0.004690042
     13        6           0.086771477   -0.074504179    0.004350896
     14        8          -0.117144615    0.114268013   -0.007449809
 -------------------------------------------------------------------
 Cartesian Forces:  Max     0.117144615 RMS     0.032023127
 Leave Link  716 at Tue May 28 16:29:31 2024, MaxMem=   536870912 cpu:               0.1 elap:               0.0
 (Enter /software/gaussian/g16-c01/avx2/g16/l103.exe)

 GradGradGradGradGradGradGradGradGradGradGradGradGradGradGradGradGradGrad
 Berny optimization.
 Using GEDIIS/GDIIS optimizer.
 FormGI is forming the generalized inverse of G from B-inverse, IUseBI=4.
 Internal  Forces:  Max     0.163785527 RMS     0.022344353
 Search for a local minimum.
 Step number   2 out of a maximum of   71
 All quantities printed in internal units (Hartrees-Bohrs-Radians)
 RMS Force = .22344D-01 SwitMx=.10000D-02 MixMth= 1
 Mixed Optimization -- RFO/linear search
 Update second derivatives using D2CorX and points    1    2
 DE= -6.64D-02 DEPred=-5.80D-02 R= 1.14D+00
 TightC=F SS=  1.41D+00  RLast= 3.00D-01 DXNew= 5.0454D-01 9.0000D-01
 Trust test= 1.14D+00 RLast= 3.00D-01 DXMaxT set to 5.05D-01
 ITU=  1  0
 Use linear search instead of GDIIS.
     Eigenvalues ---    0.00753   0.01277   0.01309   0.01823   0.02053
     Eigenvalues ---    0.02055   0.02057   0.02060   0.02062   0.02064
     Eigenvalues ---    0.02065   0.02066   0.15990   0.16000   0.16000
     Eigenvalues ---    0.16000   0.16003   0.21013   0.22002   0.22026
     Eigenvalues ---    0.23554   0.25147   0.27295   0.35689   0.37101
     Eigenvalues ---    0.37117   0.37160   0.37249   0.37367   0.41134
     Eigenvalues ---    0.41349   0.45150   0.45261   0.45327   0.45634
     Eigenvalues ---    0.79633
 RFO step:  Lambda=-1.81103047D-02 EMin= 7.52997127D-03
 Quartic linear search produced a step of  0.85240.
 Maximum step size (   0.505) exceeded in Quadratic search.
    -- Step size scaled by   0.797
 Iteration  1 RMS(Cart)=  0.04271834 RMS(Int)=  0.03434606
 Iteration  2 RMS(Cart)=  0.05762993 RMS(Int)=  0.00592485
 Iteration  3 RMS(Cart)=  0.00617568 RMS(Int)=  0.00003419
 Iteration  4 RMS(Cart)=  0.00005790 RMS(Int)=  0.00000128
 Iteration  5 RMS(Cart)=  0.00000001 RMS(Int)=  0.00000128
 ITry= 1 IFail=0 DXMaxC= 7.27D-01 DCOld= 1.00D+10 DXMaxT= 5.05D-01 DXLimC= 3.00D+00 Rises=F
 Variable       Old X    -DE/DX   Delta X   Delta X   Delta X     New X
                                 (Linear)    (Quad)   (Total)
    R1        2.63603  -0.00512  -0.01149   0.00633  -0.00517   2.63087
    R2        2.63976  -0.00360  -0.00727   0.00282  -0.00445   2.63532
    R3        2.03673   0.00533   0.01115  -0.00373   0.00742   2.04415
    R4        2.64408  -0.00342  -0.00649   0.00195  -0.00454   2.63954
    R5        2.03729   0.00603   0.01287  -0.00478   0.00809   2.04538
    R6        2.63440  -0.00445  -0.01198   0.00948  -0.00249   2.63191
    R7        2.74770  -0.01701  -0.02730  -0.00734  -0.03464   2.71306
    R8        2.63789  -0.00446  -0.01032   0.00617  -0.00416   2.63373
    R9        2.03694   0.00485   0.01100  -0.00524   0.00577   2.04271
   R10        2.63971  -0.00481  -0.00906   0.00254  -0.00652   2.63319
   R11        2.03535   0.00582   0.01203  -0.00376   0.00827   2.04362
   R12        2.03713   0.00528   0.01138  -0.00440   0.00698   2.04410
   R13        2.34794  -0.04983  -0.08243   0.03069  -0.05174   2.29620
   R14        2.43772  -0.16379  -0.22773  -0.10199  -0.32972   2.10800
    A1        2.09567   0.00112   0.00166   0.00196   0.00361   2.09928
    A2        2.09169  -0.00128  -0.00321   0.00143  -0.00178   2.08991
    A3        2.09582   0.00015   0.00155  -0.00338  -0.00183   2.09399
    A4        2.08890  -0.00149  -0.00532   0.00591   0.00060   2.08950
    A5        2.09659   0.00073   0.00239  -0.00213   0.00025   2.09685
    A6        2.09769   0.00076   0.00293  -0.00378  -0.00085   2.09684
    A7        2.10238   0.00122   0.00694  -0.01176  -0.00481   2.09756
    A8        2.11356   0.00569   0.01571  -0.01054   0.00517   2.11873
    A9        2.06725  -0.00691  -0.02265   0.02230  -0.00035   2.06690
   A10        2.08783  -0.00084  -0.00472   0.00845   0.00373   2.09155
   A11        2.09368  -0.00109  -0.00059  -0.00641  -0.00700   2.08668
   A12        2.10168   0.00193   0.00531  -0.00204   0.00327   2.10495
   A13        2.09805   0.00067   0.00213  -0.00207   0.00005   2.09811
   A14        2.08987  -0.00087  -0.00344   0.00491   0.00147   2.09135
   A15        2.09526   0.00020   0.00131  -0.00283  -0.00152   2.09373
   A16        2.09354  -0.00067  -0.00068  -0.00249  -0.00317   2.09037
   A17        2.09432   0.00036   0.00060   0.00055   0.00115   2.09547
   A18        2.09532   0.00031   0.00008   0.00194   0.00202   2.09734
   A19        2.12211   0.02090   0.02578   0.04672   0.07250   2.19461
   A20        3.19652   0.00786   0.05611  -0.48961  -0.43350   2.76302
   A21        3.14204  -0.00002  -0.00011   0.00060   0.00048   3.14252
    D1        0.00047  -0.00001  -0.00006   0.00015   0.00010   0.00057
    D2        3.14078   0.00002   0.00007  -0.00024  -0.00017   3.14061
    D3       -3.14132  -0.00001  -0.00005   0.00019   0.00015  -3.14118
    D4       -0.00101   0.00002   0.00007  -0.00019  -0.00012  -0.00113
    D5       -0.00004   0.00000   0.00001   0.00002   0.00003  -0.00002
    D6        3.14147   0.00001   0.00001   0.00002   0.00003   3.14150
    D7       -3.14144   0.00000   0.00000  -0.00002  -0.00002  -3.14146
    D8        0.00008   0.00000   0.00001  -0.00002  -0.00002   0.00006
    D9       -0.00080   0.00002   0.00009  -0.00032  -0.00024  -0.00103
   D10        3.14072   0.00002   0.00009  -0.00045  -0.00036   3.14037
   D11       -3.14111  -0.00001  -0.00004   0.00007   0.00003  -3.14108
   D12        0.00041  -0.00001  -0.00003  -0.00006  -0.00009   0.00032
   D13        0.00069  -0.00001  -0.00007   0.00032   0.00025   0.00095
   D14       -3.14057  -0.00002  -0.00009   0.00028   0.00019  -3.14038
   D15       -3.14083  -0.00001  -0.00008   0.00045   0.00037  -3.14046
   D16        0.00109  -0.00002  -0.00010   0.00040   0.00030   0.00140
   D17        0.00011  -0.00001   0.00004  -0.00108  -0.00104  -0.00094
   D18       -3.14156  -0.00001   0.00004  -0.00121  -0.00116   3.14046
   D19       -0.00026   0.00000   0.00003  -0.00016  -0.00013  -0.00039
   D20        3.14146   0.00000   0.00002  -0.00022  -0.00020   3.14126
   D21        3.14100   0.00001   0.00005  -0.00011  -0.00006   3.14093
   D22       -0.00047   0.00001   0.00004  -0.00018  -0.00014  -0.00060
   D23       -0.00006   0.00000   0.00001  -0.00002  -0.00001  -0.00007
   D24       -3.14157  -0.00000  -0.00000  -0.00002  -0.00002  -3.14159
   D25        3.14141   0.00000   0.00001   0.00005   0.00006   3.14146
   D26       -0.00011   0.00000   0.00000   0.00005   0.00005  -0.00005
         Item               Value     Threshold  Converged?
 Maximum Force            0.163786     0.000450     NO 
 RMS     Force            0.022344     0.000300     NO 
 Maximum Displacement     0.726889     0.001800     NO 
 RMS     Displacement     0.100240     0.001200     NO 
 Predicted change in Energy=-4.285747D-02
 Lowest energy point so far.  Saving SCF results.
 GradGradGradGradGradGradGradGradGradGradGradGradGradGradGradGradGradGrad

 Leave Link  103 at Tue May 28 16:29:31 2024, MaxMem=   536870912 cpu:               0.1 elap:               0.0
 (Enter /software/gaussian/g16-c01/avx2/g16/l202.exe)
                          Input orientation:                          
 ---------------------------------------------------------------------
 Center     Atomic      Atomic             Coordinates (Angstroms)
 Number     Number       Type             X           Y           Z
 ---------------------------------------------------------------------
      1          6           0       -0.583030   -1.257120    0.120806
      2          6           0        0.782263   -1.005502    0.016549
      3          6           0        1.233255    0.304151   -0.163516
      4          6           0        0.321663    1.354353   -0.239795
      5          6           0       -1.043910    1.096230   -0.134854
      6          6           0       -1.499089   -0.208343    0.045505
      7          1           0       -0.932695   -2.271166    0.260646
      8          1           0        1.491321   -1.821098    0.076213
      9          1           0        0.681712    2.363837   -0.380401
     10          1           0       -1.751557    1.911870   -0.193797
     11          1           0       -2.559102   -0.407874    0.126861
     12          7           0        2.632793    0.604665   -0.273927
     13          6           0        3.538408   -0.203988   -0.224937
     14          8           0        4.036967   -1.197461   -0.131099
 ---------------------------------------------------------------------
                    Distance matrix (angstroms):
                    1          2          3          4          5
     1  C    0.000000
     2  C    1.392196   0.000000
     3  C    2.411908   1.396785   0.000000
     4  C    2.787166   2.418011   1.392746   0.000000
     5  C    2.411644   2.788388   2.411159   1.393711   0.000000
     6  C    1.394550   2.416790   2.787839   2.416310   1.393422
     7  H    1.081716   2.145361   3.391683   3.868882   3.392366
     8  H    2.150114   1.082367   2.154241   3.398742   3.870755
     9  H    3.868089   3.394131   2.143255   1.080955   2.155201
    10  H    3.392186   3.869825   3.390395   2.147366   1.081438
    11  H    2.150841   3.396182   3.869531   3.396864   2.150960
    12  N    3.736787   2.470116   1.435690   2.429921   3.712024
    13  C    4.267890   2.880464   2.361294   3.574367   4.764066
    14  O    4.627244   3.263701   3.180675   4.508553   5.574616
                    6          7          8          9         10
     6  C    0.000000
     7  H    2.149961   0.000000
     8  H    3.397716   2.472333   0.000000
     9  H    3.399029   4.949798   4.286915   0.000000
    10  H    2.148559   4.286589   4.952192   2.481913   0.000000
    11  H    1.081693   2.476885   4.290186   4.294481   2.477128
    12  N    4.223206   4.611819   2.703679   2.629209   4.575776
    13  C    5.044754   4.949725   2.626081   3.844295   5.697504
    14  O    5.626497   5.099397   2.629109   4.899258   6.571063
                   11         12         13         14
    11  H    0.000000
    12  N    5.304870   0.000000
    13  C    6.111053   1.215097   0.000000
[...]
   D16       -0.00005   0.00000  -0.00001   0.00004   0.00004  -0.00001
   D17       -0.00059   0.00000   0.00006   0.00033   0.00039  -0.00019
   D18        3.14110   0.00000   0.00008   0.00026   0.00034   3.14144
   D19        0.00000   0.00000   0.00000   0.00000   0.00000   0.00001
   D20        3.14154   0.00000  -0.00001   0.00002   0.00001   3.14155
   D21       -3.14159  -0.00000  -0.00000  -0.00001  -0.00001   3.14159
   D22       -0.00005   0.00000  -0.00001   0.00001   0.00000  -0.00005
   D23       -0.00004   0.00000  -0.00001   0.00004   0.00002  -0.00002
   D24        3.14155   0.00000  -0.00001   0.00001   0.00001   3.14156
   D25       -3.14157   0.00000  -0.00000   0.00001   0.00001  -3.14156
   D26        0.00002  -0.00000   0.00000  -0.00001  -0.00001   0.00001
         Item               Value     Threshold  Converged?
 Maximum Force            0.000184     0.000450     YES
 RMS     Force            0.000040     0.000300     YES
 Maximum Displacement     0.000767     0.001800     YES
 RMS     Displacement     0.000210     0.001200     YES
 Predicted change in Energy=-1.285013D-07
 Optimization completed.
    -- Stationary point found.
                           ----------------------------
                           !   Optimized Parameters   !
                           ! (Angstroms and Degrees)  !
 --------------------------                            --------------------------
 ! Name  Definition              Value          Derivative Info.                !
 --------------------------------------------------------------------------------
 ! R1    R(1,2)                  1.3899         -DE/DX =   -0.0001              !
 ! R2    R(1,6)                  1.3925         -DE/DX =    0.0                 !
 ! R3    R(1,7)                  1.0857         -DE/DX =    0.0                 !
 ! R4    R(2,3)                  1.3972         -DE/DX =    0.0001              !
 ! R5    R(2,8)                  1.0861         -DE/DX =    0.0                 !
 ! R6    R(3,4)                  1.3947         -DE/DX =   -0.0001              !
 ! R7    R(3,12)                 1.3984         -DE/DX =    0.0001              !
 ! R8    R(4,5)                  1.39           -DE/DX =    0.0001              !
 ! R9    R(4,9)                  1.0847         -DE/DX =    0.0                 !
 ! R10   R(5,6)                  1.3924         -DE/DX =   -0.0001              !
 ! R11   R(5,10)                 1.0856         -DE/DX =    0.0                 !
 ! R12   R(6,11)                 1.0853         -DE/DX =    0.0                 !
 ! R13   R(12,13)                1.2059         -DE/DX =    0.0001              !
 ! R14   R(13,14)                1.173          -DE/DX =    0.0002              !
 ! A1    A(2,1,6)              120.4547         -DE/DX =    0.0                 !
 ! A2    A(2,1,7)              119.3691         -DE/DX =    0.0                 !
 ! A3    A(6,1,7)              120.1762         -DE/DX =    0.0                 !
 ! A4    A(1,2,3)              119.6111         -DE/DX =    0.0                 !
 ! A5    A(1,2,8)              120.5667         -DE/DX =    0.0                 !
 ! A6    A(3,2,8)              119.8222         -DE/DX =    0.0                 !
 ! A7    A(2,3,4)              120.1705         -DE/DX =    0.0                 !
 ! A8    A(2,3,12)             121.7342         -DE/DX =    0.0                 !
 ! A9    A(4,3,12)             118.0953         -DE/DX =    0.0                 !
 ! A10   A(3,4,5)              119.7032         -DE/DX =    0.0                 !
 ! A11   A(3,4,9)              119.0696         -DE/DX =    0.0                 !
 ! A12   A(5,4,9)              121.2272         -DE/DX =    0.0                 !
 ! A13   A(4,5,6)              120.4174         -DE/DX =    0.0                 !
 ! A14   A(4,5,10)             119.4578         -DE/DX =    0.0                 !
 ! A15   A(6,5,10)             120.1247         -DE/DX =    0.0                 !
 ! A16   A(1,6,5)              119.6431         -DE/DX =    0.0                 !
 ! A17   A(1,6,11)             120.1461         -DE/DX =    0.0                 !
 ! A18   A(5,6,11)             120.2109         -DE/DX =    0.0                 !
 ! A19   A(3,12,13)            139.4743         -DE/DX =    0.0                 !
 ! A20   L(12,13,14,7,-1)      186.6152         -DE/DX =    0.0                 !
 ! A21   L(12,13,14,7,-2)      179.994          -DE/DX =    0.0                 !
 ! D1    D(6,1,2,3)              0.0008         -DE/DX =    0.0                 !
 ! D2    D(6,1,2,8)           -179.9982         -DE/DX =    0.0                 !
 ! D3    D(7,1,2,3)           -179.9968         -DE/DX =    0.0                 !
 ! D4    D(7,1,2,8)              0.0042         -DE/DX =    0.0                 !
 ! D5    D(2,1,6,5)              0.0016         -DE/DX =    0.0                 !
 ! D6    D(2,1,6,11)          -179.9983         -DE/DX =    0.0                 !
 ! D7    D(7,1,6,5)            179.9992         -DE/DX =    0.0                 !
 ! D8    D(7,1,6,11)            -0.0007         -DE/DX =    0.0                 !
 ! D9    D(1,2,3,4)             -0.0028         -DE/DX =    0.0                 !
 ! D10   D(1,2,3,12)          -179.9975         -DE/DX =    0.0                 !
 ! D11   D(8,2,3,4)            179.9962         -DE/DX =    0.0                 !
 ! D12   D(8,2,3,12)             0.0016         -DE/DX =    0.0                 !
 ! D13   D(2,3,4,5)              0.0022         -DE/DX =    0.0                 !
 ! D14   D(2,3,4,9)           -179.9977         -DE/DX =    0.0                 !
 ! D15   D(12,3,4,5)           179.9971         -DE/DX =    0.0                 !
 ! D16   D(12,3,4,9)            -0.0029         -DE/DX =    0.0                 !
 ! D17   D(2,3,12,13)           -0.0335         -DE/DX =    0.0                 !
 ! D18   D(4,3,12,13)          179.9717         -DE/DX =    0.0                 !
 ! D19   D(3,4,5,6)              0.0003         -DE/DX =    0.0                 !
 ! D20   D(3,4,5,10)           179.997          -DE/DX =    0.0                 !
 ! D21   D(9,4,5,6)            180.0002         -DE/DX =    0.0                 !
 ! D22   D(9,4,5,10)            -0.0031         -DE/DX =    0.0                 !
 ! D23   D(4,5,6,1)             -0.0022         -DE/DX =    0.0                 !
 ! D24   D(4,5,6,11)           179.9978         -DE/DX =    0.0                 !
 ! D25   D(10,5,6,1)          -179.9989         -DE/DX =    0.0                 !
 ! D26   D(10,5,6,11)            0.001          -DE/DX =    0.0                 !
 --------------------------------------------------------------------------------
 Lowest energy point so far.  Saving SCF results.
 Largest change from initial coordinates is atom   14       0.722 Angstoms.
 GradGradGradGradGradGradGradGradGradGradGradGradGradGradGradGradGradGrad

 Leave Link  103 at Tue May 28 16:31:40 2024, MaxMem=   536870912 cpu:               0.1 elap:               0.0
 (Enter /software/gaussian/g16-c01/avx2/g16/l202.exe)
                          Input orientation:                          
 ---------------------------------------------------------------------
 Center     Atomic      Atomic             Coordinates (Angstroms)
 Number     Number       Type             X           Y           Z
 ---------------------------------------------------------------------
      1          6           0       -0.714562   -1.264313    0.128265
      2          6           0        0.661843   -1.095654    0.034599
      3          6           0        1.189716    0.185353   -0.145998
      4          6           0        0.339952    1.287971   -0.231765
      5          6           0       -1.034937    1.106981   -0.136725
      6          6           0       -1.567522   -0.166888    0.043328
      7          1           0       -1.120501   -2.261453    0.268630
      8          1           0        1.328769   -1.950297    0.100573
      9          1           0        0.768925    2.274276   -0.372057
     10          1           0       -1.692702    1.968044   -0.203965
     11          1           0       -2.641586   -0.304351    0.117143
     12          7           0        2.566981    0.405985   -0.245945
     13          6           0        3.598981   -0.217576   -0.226554
     14          8           0        4.665641   -0.705525   -0.225276
 ---------------------------------------------------------------------
                    Distance matrix (angstroms):
                    1          2          3          4          5
     1  C    0.000000
     2  C    1.389859   0.000000
     3  C    2.408947   1.397227   0.000000
     4  C    2.784919   2.419966   1.394713   0.000000
     5  C    2.407467   2.785681   2.408021   1.390003   0.000000
     6  C    1.392514   2.415108   2.786086   2.414694   1.392411
     7  H    1.085715   2.142570   3.390557   3.870624   3.393815
     8  H    2.155584   1.086074   2.154329   3.402145   3.871739
     9  H    3.869454   3.396067   2.142842   1.084665   2.161453
    10  H    3.393415   3.871310   3.389643   2.143584   1.085635
    11  H    2.152922   3.397884   3.871425   3.398057   2.153515
    12  N    3.701142   2.441962   1.398402   2.395363   3.671123
    13  C    4.452887   3.076687   2.444054   3.589982   4.820344
    14  O    5.420684   4.031146   3.589151   4.762946   5.982442
                    6          7          8          9         10
     6  C    0.000000
     7  H    2.153553   0.000000
     8  H    3.401811   2.474668   0.000000
     9  H    3.404528   4.955124   4.287636   0.000000
    10  H    2.152849   4.294113   4.957360   2.486290   0.000000
    11  H    1.085339   2.483324   4.298038   4.303513   2.483399
    12  N    4.184014   4.580124   2.684271   2.596040   4.537256
    13  C    5.173795   5.166831   2.874578   3.773555   5.725325
    14  O    6.262156   6.012012   3.576360   4.907663   6.897604
                   11         12         13         14
    11  H    0.000000
    12  N    5.269306   0.000000
    13  C    6.250627   1.205914   0.000000
    14  O    7.326238   2.374922   1.172970   0.000000
 Symmetry turned off by external request.
 Stoichiometry    C7H5NO
 Framework group  C1[X(C7H5NO)]
 Deg. of freedom    36
 Full point group                 C1      NOp   1
 Rotational constants (GHZ):           5.3086128           0.9557174           0.8099084
 Leave Link  202 at Tue May 28 16:31:41 2024, MaxMem=   536870912 cpu:               0.0 elap:               0.0
 (Enter /software/gaussian/g16-c01/avx2/g16/l601.exe)
 Copying SCF densities to generalized density rwf, IOpCl= 0 IROHF=0.

 **********************************************************************

            Population analysis using the SCF Density.

 **********************************************************************

 Alpha  occ. eigenvalues --  -19.32632 -14.48976 -10.44887 -10.36781 -10.31595
 Alpha  occ. eigenvalues --  -10.31487 -10.31387 -10.31204 -10.31045  -1.21109
 Alpha  occ. eigenvalues --   -1.07200  -0.96535  -0.86729  -0.85820  -0.74748
 Alpha  occ. eigenvalues --   -0.71487  -0.65693  -0.60127  -0.58713  -0.57145
 Alpha  occ. eigenvalues --   -0.56144  -0.53995  -0.52994  -0.51752  -0.48041
 Alpha  occ. eigenvalues --   -0.45565  -0.44319  -0.41065  -0.38846  -0.33956
 Alpha  occ. eigenvalues --   -0.31058
 Alpha virt. eigenvalues --    0.04618   0.05934   0.08975   0.16055   0.17386
 Alpha virt. eigenvalues --    0.20195   0.22660   0.23677   0.25438   0.26653
 Alpha virt. eigenvalues --    0.26787   0.34588   0.36522   0.37501   0.40595
 Alpha virt. eigenvalues --    0.44090   0.49977   0.51744   0.57339   0.58190
 Alpha virt. eigenvalues --    0.61337   0.61553   0.62364   0.65659   0.66863
 Alpha virt. eigenvalues --    0.67592   0.68115   0.69199   0.69201   0.69558
 Alpha virt. eigenvalues --    0.72531   0.74439   0.76427   0.83853   0.84401
 Alpha virt. eigenvalues --    0.87630   0.90513   0.92567   0.92786   0.92872
 Alpha virt. eigenvalues --    0.94897   0.97417   0.99642   1.02498   1.05114
 Alpha virt. eigenvalues --    1.07408   1.10144   1.11356   1.12883   1.16113
 Alpha virt. eigenvalues --    1.18990   1.22806   1.25757   1.29252   1.32031
 Alpha virt. eigenvalues --    1.36897   1.37292   1.47827   1.49145   1.50333
 Alpha virt. eigenvalues --    1.51661   1.55222   1.55224   1.56330   1.58127
 Alpha virt. eigenvalues --    1.63737   1.65536   1.69252   1.86432   1.87059
 Alpha virt. eigenvalues --    1.90676   1.93402   1.96542   1.97005   2.03230
 Alpha virt. eigenvalues --    2.05299   2.06966   2.09423   2.09622   2.11574
 Alpha virt. eigenvalues --    2.14851   2.16605   2.22491   2.22825   2.26456
 Alpha virt. eigenvalues --    2.32127   2.38329   2.38681   2.43807   2.51848
 Alpha virt. eigenvalues --    2.58871   2.65913   2.73094   2.73843   2.77465
 Alpha virt. eigenvalues --    2.81382   2.81828   2.88148   2.92923   3.02100
 Alpha virt. eigenvalues --    3.08414   3.12733   3.25758   3.48064   3.55160
 Alpha virt. eigenvalues --    4.07060   4.18750   4.20817   4.24083   4.41374
 Alpha virt. eigenvalues --    4.48398   4.50216   4.76170   4.88073
          Condensed to atoms (all electrons):
               1          2          3          4          5          6
     1  C    4.881496   0.516910  -0.013994  -0.036325  -0.031898   0.555571
     2  C    0.516910   4.995943   0.560950  -0.074370  -0.036594  -0.044332
     3  C   -0.013994   0.560950   4.526031   0.543336  -0.019673  -0.033656
     4  C   -0.036325  -0.074370   0.543336   4.974152   0.532654  -0.043406
     5  C   -0.031898  -0.036594  -0.019673   0.532654   4.870957   0.554150
     6  C    0.555571  -0.044332  -0.033656  -0.043406   0.554150   4.867918
     7  H    0.367037  -0.032437   0.002603   0.000656   0.003647  -0.035783
     8  H   -0.035132   0.365064  -0.036256   0.004381   0.000209   0.003794
     9  H   -0.000008   0.005134  -0.035155   0.363484  -0.036091   0.003913
    10  H    0.003806   0.000543   0.002926  -0.034345   0.369509  -0.036722
    11  H   -0.037233   0.003970   0.000534   0.003651  -0.037027   0.371096
    12  N    0.006997  -0.072011   0.294471  -0.062999   0.004116   0.000193
    13  C    0.000371  -0.007813  -0.062903   0.005042  -0.000133   0.000008
    14  O   -0.000004   0.000257  -0.000265  -0.000051   0.000000  -0.000000
               7          8          9         10         11         12
     1  C    0.367037  -0.035132  -0.000008   0.003806  -0.037233   0.006997
     2  C   -0.032437   0.365064   0.005134   0.000543   0.003970  -0.072011
     3  C    0.002603  -0.036256  -0.035155   0.002926   0.000534   0.294471
     4  C    0.000656   0.004381   0.363484  -0.034345   0.003651  -0.062999
     5  C    0.003647   0.000209  -0.036091   0.369509  -0.037027   0.004116
     6  C   -0.035783   0.003794   0.003913  -0.036722   0.371096   0.000193
     7  H    0.525304  -0.004013   0.000012  -0.000147  -0.003887  -0.000106
     8  H   -0.004013   0.528740  -0.000122   0.000012  -0.000130  -0.008488
     9  H    0.000012  -0.000122   0.518700  -0.004284  -0.000121  -0.002390
    10  H   -0.000147   0.000012  -0.004284   0.526125  -0.003918  -0.000094
    11  H   -0.003887  -0.000130  -0.000121  -0.003918   0.529652   0.000003
    12  N   -0.000106  -0.008488  -0.002390  -0.000094   0.000003   6.811222
    13  C   -0.000006   0.003670   0.000117   0.000001  -0.000000   0.579201
    14  O    0.000000   0.000216  -0.000003  -0.000000   0.000000  -0.032359
              13         14
     1  C    0.000371  -0.000004
     2  C   -0.007813   0.000257
     3  C   -0.062903  -0.000265
     4  C    0.005042  -0.000051
     5  C   -0.000133   0.000000
     6  C    0.000008  -0.000000
     7  H   -0.000006   0.000000
     8  H    0.003670   0.000216
     9  H    0.000117  -0.000003
    10  H    0.000001  -0.000000
    11  H   -0.000000   0.000000
    12  N    0.579201  -0.032359
    13  C    4.242393   0.601479
    14  O    0.601479   7.843346
 Mulliken charges:
               1
     1  C   -0.177594
     2  C   -0.181214
     3  C    0.271050
     4  C   -0.175860
     5  C   -0.173826
     6  C   -0.162745
     7  H    0.177121
     8  H    0.178055
     9  H    0.186813
    10  H    0.176589
    11  H    0.173410
    12  N   -0.517756
    13  C    0.638574
    14  O   -0.412618
 Sum of Mulliken charges =  -0.00000
 Mulliken charges with hydrogens summed into heavy atoms:
               1
     1  C   -0.000472
     2  C   -0.003159
     3  C    0.271050
     4  C    0.010953
     5  C    0.002763
     6  C    0.010665
    12  N   -0.517756
    13  C    0.638574
    14  O   -0.412618
 Electronic spatial extent (au):  <R**2>=           1572.2901
 Charge=             -0.0000 electrons
 Dipole moment (field-independent basis, Debye):
    X=             -2.5417    Y=             -0.0450    Z=              0.1413  Tot=              2.5460
 Quadrupole moment (field-independent basis, Debye-Ang):
   XX=            -59.2981   YY=            -45.3610   ZZ=            -52.6681
   XY=              1.2747   XZ=              0.3503   YZ=             -0.9443
 Traceless Quadrupole moment (field-independent basis, Debye-Ang):
   XX=             -6.8557   YY=              7.0814   ZZ=             -0.2257
   XY=              1.2747   XZ=              0.3503   YZ=             -0.9443
 Octapole moment (field-independent basis, Debye-Ang**2):
  XXX=           -223.3200  YYY=              7.6135  ZZZ=             15.9738  XYY=            -51.9918
  XXY=             15.1217  XXZ=              8.8638  XZZ=            -45.4976  YZZ=              2.3872
  YYZ=              5.1570  XYZ=              0.0394
 Hexadecapole moment (field-independent basis, Debye-Ang**3):
 XXXX=          -1940.7486 YYYY=           -287.5776 ZZZZ=            -61.0683 XXXY=            127.1252
 XXXZ=             58.8811 YYYX=             48.6307 YYYZ=              7.3525 ZZZX=             42.9361
 ZZZY=             14.6842 XXYY=           -318.8597 XXZZ=           -270.9656 YYZZ=            -67.4979
 XXYZ=             -0.0604 YYXZ=             14.5491 ZZXY=             15.9410
 N-N= 3.741641481843D+02 E-N=-1.677426459597D+03  KE= 3.959368547037D+02
 No NMR shielding tensors so no spin-rotation constants.
 Leave Link  601 at Tue May 28 16:31:41 2024, MaxMem=   536870912 cpu:               0.9 elap:               0.3
 (Enter /software/gaussian/g16-c01/avx2/g16/l9999.exe)
 Unable to Open any file for archive entry.
 1\1\GINC-BHD0001\FOpt\RwB97XD\6-31G(d)\C7H5N1O1\BWEIGHT\28-May-2024\0\
 \#P OPT wB97XD/6-31G* NoSymm\\PHI Geometry (Unoptimized)\\0,1\C,-0.714
 562002,-1.264313083,0.1282647494\C,0.6618427199,-1.095654181,0.0345990
 61\C,1.1897159296,0.1853526837,-0.1459976214\C,0.3399516792,1.28797125
 23,-0.2317646899\C,-1.0349371473,1.1069813694,-0.136724873\C,-1.567521
 5497,-0.1668883482,0.0433277068\H,-1.120500886,-2.2614527033,0.2686304
 166\H,1.3287687723,-1.9502968355,0.1005729364\H,0.7689252877,2.2742764
 77,-0.3720568606\H,-1.6927015204,1.968044229,-0.2039647209\H,-2.641586
 3005,-0.3043508085,0.1171426557\N,2.5669814184,0.4059850837,-0.2459445
 723\C,3.5989808409,-0.2175761152,-0.2265538501\O,4.6656409379,-0.70552
 47405,-0.2252759377\\Version=ES64L-G16RevC.01\HF=-399.5921431\RMSD=8.2
 31e-09\RMSF=6.824e-05\Dipole=-0.999984,-0.017709,0.0555774\Quadrupole=
 -5.0970382,5.2648339,-0.1677957,0.947744,0.2604407,-0.7020487\PG=C01 [
 X(C7H5N1O1)]\\@
 The archive entry for this job was punched.


 AND THIS OUR LIFE, EXEMPT FROM PUBLIC HAUNT,
 FINDS TONGUES IN TREES, BOOKS IN THE RUNNING BROOKS,
 SERMONS IN STONES, AND GOOD IN EVERYTHING.
 I WOULD NOT CHANGE IT. -- W. SHAKESPEARE
 AS YOU LIKE IT, ACT II, SCENE 1.
 Job cpu time:       0 days  0 hours 10 minutes 28.9 seconds.
 Elapsed time:       0 days  0 hours  2 minutes 46.7 seconds.
 File lengths (MBytes):  RWF=     15 Int=      0 D2E=      0 Chk=     32 Scr=      1
 Normal termination of Gaussian 16 at Tue May 28 16:31:41 2024.
