 Entering Gaussian System, Link 0=g16
 Initial command:
 /software/gaussian/g16-c01/avx2/g16/l1.exe "/local_scratch/24931842/Gau-31283.inp" -scrdir="/local_scratch/24931842/"
 Entering Link 1 = /software/gaussian/g16-c01/avx2/g16/l1.exe PID=     31286.
  
 Copyright (c) 1988-2019, Gaussian, Inc.  All Rights Reserved.
  
 This is part of the Gaussian(R) 16 program.  It is based on
 the Gaussian(R) 09 system (copyright 2009, Gaussian, Inc.),
 the Gaussian(R) 03 system (copyright 2003, Gaussian, Inc.),
 the Gaussian(R) 98 system (copyright 1998, Gaussian, Inc.),
 the Gaussian(R) 94 system (copyright 1995, Gaussian, Inc.),
 the Gaussian 92(TM) system (copyright 1992, Gaussian, Inc.),
 the Gaussian 90(TM) system (copyright 1990, Gaussian, Inc.),
 the Gaussian 88(TM) system (copyright 1988, Gaussian, Inc.),
 the Gaussian 86(TM) system (copyright 1986, Carnegie Mellon
 University), and the Gaussian 82(TM) system (copyright 1983,
 Carnegie Mellon University). Gaussian is a federally registered
 trademark of Gaussian, Inc.
  
 This software contains proprietary and confidential information,
 including trade secrets, belonging to Gaussian, Inc.
  
 This software is provided under written license and may be
 used, copied, transmitted, or stored only in accord with that
 written license.
  
 The following legend is applicable only to US Government
 contracts under FAR:
  
                    RESTRICTED RIGHTS LEGEND
  
 Use, reproduction and disclosure by the US Government is
 subject to restrictions as set forth in subparagraphs (a)
 and (c) of the Commercial Computer Software - Restricted
 Rights clause in FAR 52.227-19.
  
 Gaussian, Inc.
 340 Quinnipiac St., Bldg. 40, Wallingford CT 06492
  
  
 ---------------------------------------------------------------
 Warning -- This program may not be used in any manner that
 competes with the business of Gaussian, Inc. or will provide
 assistance to any competitor of Gaussian, Inc.  The licensee
 of this program is prohibited from giving any competitor of
 Gaussian, Inc. access to this program.  By using this program,
 the user acknowledges that Gaussian, Inc. is engaged in the
 business of creating and licensing software in the field of
 computational chemistry and represents and warrants to the
 licensee that it is not a competitor of Gaussian, Inc. and that
 it will not use this program in any manner prohibited above.
 ---------------------------------------------------------------
  

 Cite this work as:
 Gaussian 16, Revision C.01,
 M. J. Frisch, G. W. Trucks, H. B. Schlegel, G. E. Scuseria, 
 M. A. Robb, J. R. Cheeseman, G. Scalmani, V. Barone, 
 G. A. Petersson, H. Nakatsuji, X. Li, M. Caricato, A. V. Marenich, 
 J. Bloino, B. G. Janesko, R. Gomperts, B. Mennucci, H. P. Hratchian, 
 J. V. Ortiz, A. F. Izmaylov, J. L. Sonnenberg, D. Williams-Young, 
 F. Ding, F. Lipparini, F. Egidi, J. Goings, B. Peng, A. Petrone, 
 T. Henderson, D. Ranasinghe, V. G. Zakrzewski, J. Gao, N. Rega, 
 G. Zheng, W. Liang, M. Hada, M. Ehara, K. Toyota, R. Fukuda, 
 J. Hasegawa, M. Ishida, T. Nakajima, Y. Honda, O. Kitao, H. Nakai, 
 T. Vreven, K. Throssell, J. A. Montgomery, Jr., J. E. Peralta, 
 F. Ogliaro, M. J. Bearpark, J. J. Heyd, E. N. Brothers, K. N. Kudin, 
 V. N. Staroverov, T. A. Keith, R. Kobayashi, J. Normand, 
 K. Raghavachari, A. P. Rendell, J. C. Burant, S. S. Iyengar, 
 J. Tomasi, M. Cossi, J. M. Millam, M. Klene, C. Adamo, R. Cammi, 
 J. W. Ochterski, R. L. Martin, K. Morokuma, O. Farkas, 
 J. B. Foresman, and D. J. Fox, Gaussian, Inc., Wallingford CT, 2019.
 
 ******************************************
 Gaussian 16:  ES64L-G16RevC.01  3-Jul-2019
                28-May-2024 
 ******************************************
 %chk=geometry.chk
 %mem=56GB
 %nprocshared=24
 Will use up to   24 processors via shared memory.
 --------------------------------------------
 #P FREQ=SaveNormalModes wB97XD/6-31G* NoSymm
 --------------------------------------------
 1/10=4,30=1,38=1/1,3;
 2/12=2,15=1,17=6,18=5,40=1/2;
 3/5=1,6=6,7=1,11=2,25=1,30=1,71=2,74=-58,140=1/1,2,3;
 4//1;
 5/5=2,38=5,98=1/2;
 8/6=4,10=90,11=11/1;
 11/6=1,8=1,9=11,15=111,16=1,31=1/1,2,10;
 10/6=1,31=1/2;
 6/7=2,8=2,9=2,10=2,28=1/1;
 7/8=1,10=1,25=1,30=1,92=1/1,2,3,16;
 1/10=4,30=1/3;
 99//99;
 Leave Link    1 at Tue May 28 17:07:05 2024, MaxMem=  7516192768 cpu:               1.4 elap:               0.1
 (Enter /software/gaussian/g16-c01/avx2/g16/l101.exe)
 ---------------------------------
 TS Geometry (OPTIMIZED FROM QST3)
 ---------------------------------
 Symbolic Z-matrix:
 Charge =  0 Multiplicity = 1
 C                    -0.49354  -1.30637   0.183 
 C                     0.89709  -1.32486   0.17681 
 C                     1.60116  -0.11952   0.11657 
 C                     0.90845   1.09096   0.06405 
 C                    -0.48086   1.09623   0.07128 
 C                    -1.18875  -0.10155   0.1307 
 H                    -1.03583  -2.24599   0.22968 
 H                     1.43308  -2.2674    0.2189 
 H                     1.46961   2.01907   0.01699 
 H                    -1.01196   2.04245   0.0298 
 H                    -2.27413  -0.09592   0.13621 
 N                     3.00933  -0.05821   0.11091 
 C                     3.80509  -1.08202   0.12682 
 H                     4.13923   0.62586   0.07262 
 O                     4.00111  -2.24295   0.18 
 O                     5.16263   0.01264   0.01303 
 C                     6.0149    0.01914   1.09487 
 C                     5.98212   1.06995   2.00692 
 C                     6.90168  -1.04236   1.25025 
 C                     6.85826   1.05697   3.08797 
 H                     5.28301   1.88877   1.86398 
 C                     7.76475  -1.04641   2.34061 
 H                     6.89922  -1.84718   0.52347 
 C                     7.74862   0.00062   3.25965 
 H                     6.84073   1.87709   3.79927 
 H                     8.45715  -1.87272   2.46958 
 H                     8.42859  -0.00624   4.10556 
 
 ITRead=  0  0  0  0  0  0  0  0  0  0  0  0  0  0  0  0  0  0  0  0
 ITRead=  0  0  0  0  0  0  0
 MicOpt= -1 -1 -1 -1 -1 -1 -1 -1 -1 -1 -1 -1 -1 -1 -1 -1 -1 -1 -1 -1
 MicOpt= -1 -1 -1 -1 -1 -1 -1
 NAtoms=     27 NQM=       27 NQMF=       0 NMMI=      0 NMMIF=      0
                NMic=       0 NMicF=      0.
                    Isotopes and Nuclear Properties:
 (Nuclear quadrupole moments (NQMom) in fm**2, nuclear magnetic moments (NMagM)
  in nuclear magnetons)

  Atom         1           2           3           4           5           6           7           8           9          10
 IAtWgt=          12          12          12          12          12          12           1           1           1           1
 AtmWgt=  12.0000000  12.0000000  12.0000000  12.0000000  12.0000000  12.0000000   1.0078250   1.0078250   1.0078250   1.0078250
 NucSpn=           0           0           0           0           0           0           1           1           1           1
 AtZEff=  -0.0000000  -0.0000000  -0.0000000  -0.0000000  -0.0000000  -0.0000000  -0.0000000  -0.0000000  -0.0000000  -0.0000000
 NQMom=    0.0000000   0.0000000   0.0000000   0.0000000   0.0000000   0.0000000   0.0000000   0.0000000   0.0000000   0.0000000
 NMagM=    0.0000000   0.0000000   0.0000000   0.0000000   0.0000000   0.0000000   2.7928460   2.7928460   2.7928460   2.7928460
 AtZNuc=   6.0000000   6.0000000   6.0000000   6.0000000   6.0000000   6.0000000   1.0000000   1.0000000   1.0000000   1.0000000

  Atom        11          12          13          14          15          16          17          18          19          20
 IAtWgt=           1          14          12           1          16          16          12          12          12          12
 AtmWgt=   1.0078250  14.0030740  12.0000000   1.0078250  15.9949146  15.9949146  12.0000000  12.0000000  12.0000000  12.0000000
 NucSpn=           1           2           0           1           0           0           0           0           0           0
 AtZEff=  -0.0000000  -0.0000000  -0.0000000  -0.0000000  -0.0000000  -0.0000000  -0.0000000  -0.0000000  -0.0000000  -0.0000000
 NQMom=    0.0000000   2.0440000   0.0000000   0.0000000   0.0000000   0.0000000   0.0000000   0.0000000   0.0000000   0.0000000
 NMagM=    2.7928460   0.4037610   0.0000000   2.7928460   0.0000000   0.0000000   0.0000000   0.0000000   0.0000000   0.0000000
 AtZNuc=   1.0000000   7.0000000   6.0000000   1.0000000   8.0000000   8.0000000   6.0000000   6.0000000   6.0000000   6.0000000

  Atom        21          22          23          24          25          26          27
 IAtWgt=           1          12           1          12           1           1           1
 AtmWgt=   1.0078250  12.0000000   1.0078250  12.0000000   1.0078250   1.0078250   1.0078250
 NucSpn=           1           0           1           0           1           1           1
 AtZEff=  -0.0000000  -0.0000000  -0.0000000  -0.0000000  -0.0000000  -0.0000000  -0.0000000
 NQMom=    0.0000000   0.0000000   0.0000000   0.0000000   0.0000000   0.0000000   0.0000000
 NMagM=    2.7928460   0.0000000   2.7928460   0.0000000   2.7928460   2.7928460   2.7928460
 AtZNuc=   1.0000000   6.0000000   1.0000000   6.0000000   1.0000000   1.0000000   1.0000000
 Leave Link  101 at Tue May 28 17:07:06 2024, MaxMem=  7516192768 cpu:               1.7 elap:               0.1
 (Enter /software/gaussian/g16-c01/avx2/g16/l103.exe)

 GradGradGradGradGradGradGradGradGradGradGradGradGradGradGradGradGradGrad
 Berny optimization.
 Initialization pass.
 Trust Radius=3.00D-01 FncErr=1.00D-07 GrdErr=1.00D-07 EigMax=2.50D+02 EigMin=1.00D-04
 Number of steps in this run=      2 maximum allowed number of steps=      2.
 GradGradGradGradGradGradGradGradGradGradGradGradGradGradGradGradGradGrad

 Leave Link  103 at Tue May 28 17:07:06 2024, MaxMem=  7516192768 cpu:               0.6 elap:               0.0
 (Enter /software/gaussian/g16-c01/avx2/g16/l202.exe)
                          Input orientation:                          
 ---------------------------------------------------------------------
 Center     Atomic      Atomic             Coordinates (Angstroms)
 Number     Number       Type             X           Y           Z
 ---------------------------------------------------------------------
      1          6           0       -0.493540   -1.306370    0.183000
      2          6           0        0.897090   -1.324860    0.176810
      3          6           0        1.601160   -0.119520    0.116570
      4          6           0        0.908450    1.090960    0.064050
      5          6           0       -0.480860    1.096230    0.071280
      6          6           0       -1.188750   -0.101550    0.130700
      7          1           0       -1.035830   -2.245990    0.229680
      8          1           0        1.433080   -2.267400    0.218900
      9          1           0        1.469610    2.019070    0.016990
     10          1           0       -1.011960    2.042450    0.029800
     11          1           0       -2.274130   -0.095920    0.136210
     12          7           0        3.009330   -0.058210    0.110910
     13          6           0        3.805090   -1.082020    0.126820
     14          1           0        4.139230    0.625860    0.072620
     15          8           0        4.001110   -2.242950    0.180000
     16          8           0        5.162630    0.012640    0.013030
     17          6           0        6.014900    0.019140    1.094870
     18          6           0        5.982120    1.069950    2.006920
     19          6           0        6.901680   -1.042360    1.250250
     20          6           0        6.858260    1.056970    3.087970
     21          1           0        5.283010    1.888770    1.863980
     22          6           0        7.764750   -1.046410    2.340610
     23          1           0        6.899220   -1.847180    0.523470
     24          6           0        7.748620    0.000620    3.259650
     25          1           0        6.840730    1.877090    3.799270
     26          1           0        8.457150   -1.872720    2.469580
     27          1           0        8.428590   -0.006240    4.105560
 ---------------------------------------------------------------------
                    Distance matrix (angstroms):
                    1          2          3          4          5
     1  C    0.000000
     2  C    1.390767   0.000000
     3  C    2.408484   1.397207   0.000000
     4  C    2.779733   2.418477   1.395660   0.000000
     5  C    2.405229   2.787752   2.411412   1.389339   0.000000
     6  C    1.391993   2.418541   2.790004   2.413456   1.392593
     7  H    1.085884   2.141835   3.389452   3.865604   3.391683
     8  H    2.153307   1.085098   2.156875   3.402616   3.872850
     9  H    3.865238   3.396349   2.144945   1.085589   2.158452
    10  H    3.392171   3.873611   3.392645   2.143474   1.085873
    11  H    2.153574   3.401261   3.875412   3.397456   2.154357
    12  N    3.719301   2.463798   1.409515   2.395096   3.676374
    13  C    4.304847   2.918550   2.404957   3.621644   4.808038
    14  H    5.020782   3.785186   2.645623   3.264097   4.643973
    15  O    4.591195   3.236949   3.205111   4.548950   5.590170
    16  O    5.810416   4.473317   3.565425   4.389012   5.746872
    17  C    6.704347   5.370396   4.522986   5.318573   6.663539
    18  C    7.134967   5.911171   4.917425   5.432984   6.746666
    19  C    7.476497   6.106323   5.498398   6.471239   7.775952
    20  C    8.250648   7.048653   6.152272   6.674241   7.935026
    21  H    6.811985   5.693000   4.543423   4.797189   6.088028
    22  C    8.539450   7.205853   6.617803   7.533918   8.816510
    23  H    7.420330   6.034779   5.587470   6.688278   7.958248
    24  C    8.894223   7.629172   6.905407   7.628147   8.893279
    25  H    8.775155   7.661694   6.708340   7.054205   8.253080
    26  H    9.255488   7.919056   7.457544   8.458892   9.718772
    27  H    9.832661   8.596355   7.908140   8.607564   9.842213
                    6          7          8          9         10
     6  C    0.000000
     7  H    2.152163   0.000000
     8  H    3.401864   2.469026   0.000000
     9  H    3.402475   4.951081   4.291378   0.000000
    10  H    2.153641   4.293162   4.958708   2.481713   0.000000
    11  H    1.085409   2.482927   4.297158   4.301510   2.485362
    12  N    4.198350   4.600414   2.716017   2.587402   4.537634
    13  C    5.089182   4.979951   2.653307   3.883721   5.742447
    14  H    5.377720   5.920594   3.964290   3.011810   5.342595
    15  O    5.614505   5.037186   2.568441   4.959827   6.596824
    16  O    6.353496   6.600701   4.376129   4.202877   6.499690
    17  C    7.268890   7.456015   5.195061   5.081457   7.389514
    18  C    7.504265   7.962767   5.918504   5.022290   7.332934
    19  C    8.221531   8.092858   5.698245   6.356152   8.580865
    20  C    8.651126   9.021974   6.979654   6.276472   8.500820
    21  H    6.989228   7.726248   5.899322   4.239147   6.558543
    22  C    9.270471   9.129361   6.788410   7.377341   9.587051
    23  H    8.283523   7.950496   5.490723   6.684690   8.829479
    24  C    9.469813   9.560049   7.367233   7.349486   9.557655
    25  H    9.046876   9.580290   7.696657   6.570748   8.712117
    26  H   10.082202   9.760797   7.386399   8.365820  10.533049
    27  H   10.406816  10.469679   8.316017   8.321399  10.484891
                   11         12         13         14         15
    11  H    0.000000
    12  N    5.283655   0.000000
    13  C    6.158685   1.296794   0.000000
    14  H    6.454161   1.321398   1.741103   0.000000
    15  O    6.632518   2.400310   1.178563   2.874140   0.000000
    16  O    7.438572   2.156688   1.747611   1.194545   2.542576
    17  C    8.345076   3.163481   2.651968   2.220640   3.163762
    18  C    8.545436   3.702037   3.592382   2.708316   4.270520
    19  C    9.291519   4.173372   3.294319   3.435244   3.316649
    20  C    9.666571   4.992071   4.760833   4.083052   5.244909
    21  H    8.002159   3.468949   3.745339   2.472275   4.642216
    22  C   10.321915   5.344354   4.536633   4.591804   4.501659
    23  H    9.347044   4.301379   3.211922   3.733194   2.945106
    24  C   10.498605   5.690246   5.151520   4.855490   5.344313
    25  H   10.019553   5.659418   5.608773   4.769864   6.175539
    26  H   11.124837   6.207617   5.268339   5.534686   5.023499
    27  H   11.415428   6.732630   6.193902   5.921382   6.325778
                   16         17         18         19         20
    16  O    0.000000
    17  C    1.377238   0.000000
    18  C    2.401055   1.391801   0.000000
    19  C    2.380763   1.391871   2.424870   0.000000
    20  C    3.663474   2.400166   1.391567   2.790392   0.000000
    21  H    2.638252   2.150049   1.086118   3.404156   2.161355
    22  C    3.648321   2.397757   2.787131   1.390608   2.409249
    23  H    2.595231   2.142818   3.398727   1.084412   3.874587
    24  C    4.150666   2.773518   2.415227   2.417189   1.392153
    25  H    4.541785   3.383453   2.145042   3.876133   1.085749
    26  H    4.521403   3.381353   3.872872   2.143770   3.394398
    27  H    5.235996   3.858860   3.398189   3.399676   2.152171
                   21         22         23         24         25
    21  H    0.000000
    22  C    3.873176   0.000000
    23  H    4.285607   2.166188   0.000000
    24  C    3.404738   1.393258   3.409183   0.000000
    25  H    2.484346   3.395343   4.960290   2.153275   0.000000
    26  H    4.958903   1.085744   2.493019   2.153051   4.294411
    27  H    4.302373   2.153529   4.308062   1.085343   2.482347
                   26         27
    26  H    0.000000
    27  H    2.482135   0.000000
 Symmetry turned off by external request.
 Stoichiometry    C13H11NO2
 Framework group  C1[X(C13H11NO2)]
 Deg. of freedom    75
 Full point group                 C1      NOp   1
 Rotational constants (GHZ):           1.4606771           0.2337753           0.2161328
 Leave Link  202 at Tue May 28 17:07:06 2024, MaxMem=  7516192768 cpu:               0.8 elap:               0.1
 (Enter /software/gaussian/g16-c01/avx2/g16/l301.exe)
 Standard basis: 6-31G(d) (6D, 7F)
 Ernie: Thresh=  0.10000D-02 Tol=  0.10000D-05 Strict=F.
   262 basis functions,   492 primitive gaussians,   262 cartesian basis functions
    56 alpha electrons       56 beta electrons
       nuclear repulsion energy       972.5570985591 Hartrees.
 IExCor= 4639 DFT=T Ex+Corr=wB97XD ExCW=0 ScaHFX=  1.000000
 ScaDFX=  1.000000  1.000000  1.000000  1.000000 ScalE2=  1.000000  1.000000
 IRadAn=      5 IRanWt=     -1 IRanGd=            0 ICorTp=0 IEmpDi=121
 HFx  wShort=  0.000000 wLong=  0.200000 cFull=  0.222036 cShort=  0.000000 cLong=  0.777964
 DFx  wShort=  0.000000 wLong=  0.200000 cFull=  0.000000 cShort=  0.000000 cLong=  1.000000
 NAtoms=   27 NActive=   27 NUniq=   27 SFac= 1.00D+00 NAtFMM=   60 NAOKFM=F Big=F
 Integral buffers will be    131072 words long.
 Raffenetti 2 integral format.
 Two-electron integral symmetry is turned off.
 R6Disp:  Grimme-D2 Dispersion energy=       -0.0146860463 Hartrees.
 Nuclear repulsion after empirical dispersion term =      972.5424125129 Hartrees.
 Leave Link  301 at Tue May 28 17:07:06 2024, MaxMem=  7516192768 cpu:               1.0 elap:               0.1
 (Enter /software/gaussian/g16-c01/avx2/g16/l302.exe)
 NPDir=0 NMtPBC=     1 NCelOv=     1 NCel=       1 NClECP=     1 NCelD=      1
         NCelK=      1 NCelE2=     1 NClLst=     1 CellRange=     0.0.
 One-electron integrals computed using PRISM.
 NBasis=   262 RedAO= T EigKep=  4.53D-04  NBF=   262
 NBsUse=   262 1.00D-06 EigRej= -1.00D+00 NBFU=   262
 Precomputing XC quadrature grid using
 IXCGrd= 4 IRadAn=           5 IRanWt=          -1 IRanGd=           0 AccXCQ= 0.00D+00.
 Generated NRdTot=       0 NPtTot=           0 NUsed=           0 NTot=          32
 NSgBfM=   260   260   260   260   260 MxSgAt=    27 MxSgA2=    27.
 Leave Link  302 at Tue May 28 17:07:06 2024, MaxMem=  7516192768 cpu:               5.2 elap:               0.2
 (Enter /software/gaussian/g16-c01/avx2/g16/l303.exe)
 DipDrv:  MaxL=1.
 Leave Link  303 at Tue May 28 17:07:06 2024, MaxMem=  7516192768 cpu:               0.7 elap:               0.0
 (Enter /software/gaussian/g16-c01/avx2/g16/l401.exe)
 ExpMin= 1.61D-01 ExpMax= 5.48D+03 ExpMxC= 8.25D+02 IAcc=3 IRadAn=         5 AccDes= 0.00D+00
 Harris functional with IExCor= 4639 and IRadAn=       5 diagonalized for initial guess.
 HarFok:  IExCor= 4639 AccDes= 0.00D+00 IRadAn=         5 IDoV= 1 UseB2=F ITyADJ=14
 ICtDFT=  3500011 ScaDFX=  1.000000  1.000000  1.000000  1.000000
 FoFCou: FMM=F IPFlag=           0 FMFlag=      100000 FMFlg1=           0
         NFxFlg=           0 DoJE=T BraDBF=F KetDBF=T FulRan=T
         wScrn=  0.000000 ICntrl=       500 IOpCl=  0 I1Cent=   200000004 NGrid=           0
         NMat0=    1 NMatS0=      1 NMatT0=    0 NMatD0=    1 NMtDS0=    0 NMtDT0=    0
 Symmetry not used in FoFCou.
 Harris En= -676.766175502193    
 JPrj=0 DoOrth=F DoCkMO=F.
 Leave Link  401 at Tue May 28 17:07:07 2024, MaxMem=  7516192768 cpu:              12.2 elap:               0.5
 (Enter /software/gaussian/g16-c01/avx2/g16/l502.exe)
 Two-electron integral symmetry not used.
 Closed shell SCF:
 Using DIIS extrapolation, IDIIS=  1040.
 NGot=  7516192768 LenX=  7516046312 LenY=  7515977227
 Requested convergence on RMS density matrix=1.00D-08 within 128 cycles.
 Requested convergence on MAX density matrix=1.00D-06.
 Requested convergence on             energy=1.00D-06.
 No special actions if energy rises.
 Fock matrices will be formed incrementally for  20 cycles.
 Integral accuracy reduced to 1.0D-05 until final iterations.

 Cycle   1  Pass 0  IDiag  1:
 FoFJK:  IHMeth= 1 ICntrl=       0 DoSepK=T KAlg= 0 I1Cent=           0 FoldK=F
 IRaf=         1 NMat=       1 IRICut=       1 DoRegI=T DoRafI=F ISym2E= 0 IDoP0=0 IntGTp=1.
 FoFCou: FMM=F IPFlag=           0 FMFlag=      100000 FMFlg1=           0
         NFxFlg=           0 DoJE=T BraDBF=F KetDBF=F FulRan=T
         wScrn=  0.000000 ICntrl=       500 IOpCl=  0 I1Cent=           0 NGrid=           0
         NMat0=    1 NMatS0=      1 NMatT0=    0 NMatD0=    1 NMtDS0=    0 NMtDT0=    0
 Symmetry not used in FoFCou.
 E= -706.680690436666    
 DIIS: error= 6.13D-02 at cycle   1 NSaved=   1.
 NSaved= 1 IEnMin= 1 EnMin= -706.680690436666     IErMin= 1 ErrMin= 6.13D-02
 ErrMax= 6.13D-02  0.00D+00 EMaxC= 1.00D-01 BMatC= 7.01D-01 BMatP= 7.01D-01
 IDIUse=3 WtCom= 3.87D-01 WtEn= 6.13D-01
 Coeff-Com:  0.100D+01
 Coeff-En:   0.100D+01
 Coeff:      0.100D+01
 Gap=     0.458 Goal=   None    Shift=    0.000
 GapD=    0.458 DampG=2.000 DampE=0.500 DampFc=1.0000 IDamp=-1.
 RMSDP=3.62D-03 MaxDP=1.08D-01              OVMax= 1.51D-01

 Cycle   2  Pass 0  IDiag  1:
 RMSU=  3.62D-03    CP:  9.98D-01
 E= -706.744972447598     Delta-E=       -0.064282010931 Rises=F Damp=F
 DIIS: error= 1.61D-02 at cycle   2 NSaved=   2.
 NSaved= 2 IEnMin= 2 EnMin= -706.744972447598     IErMin= 2 ErrMin= 1.61D-02
 ErrMax= 1.61D-02  0.00D+00 EMaxC= 1.00D-01 BMatC= 1.90D-01 BMatP= 7.01D-01
 IDIUse=3 WtCom= 8.39D-01 WtEn= 1.61D-01
 Coeff-Com:  0.288D+00 0.712D+00
 Coeff-En:   0.392D+00 0.608D+00
 Coeff:      0.305D+00 0.695D+00
 Gap=     0.485 Goal=   None    Shift=    0.000
 RMSDP=2.27D-03 MaxDP=1.13D-01 DE=-6.43D-02 OVMax= 1.54D-01

 Cycle   3  Pass 0  IDiag  1:
 RMSU=  1.49D-03    CP:  1.00D+00  5.26D-01
 E= -706.848266353902     Delta-E=       -0.103293906305 Rises=F Damp=F
 DIIS: error= 1.04D-02 at cycle   3 NSaved=   3.
 NSaved= 3 IEnMin= 3 EnMin= -706.848266353902     IErMin= 3 ErrMin= 1.04D-02
 ErrMax= 1.04D-02  0.00D+00 EMaxC= 1.00D-01 BMatC= 7.18D-02 BMatP= 1.90D-01
 IDIUse=3 WtCom= 8.96D-01 WtEn= 1.04D-01
 Coeff-Com:  0.282D-01 0.379D+00 0.593D+00
 Coeff-En:   0.000D+00 0.264D+00 0.736D+00
 Coeff:      0.253D-01 0.367D+00 0.608D+00
 Gap=     0.386 Goal=   None    Shift=    0.000
 RMSDP=9.41D-04 MaxDP=5.57D-02 DE=-1.03D-01 OVMax= 6.40D-02

 Cycle   4  Pass 0  IDiag  1:
 RMSU=  4.89D-04    CP:  1.00D+00  6.79D-01  6.07D-01
 E= -706.901417289598     Delta-E=       -0.053150935695 Rises=F Damp=F
 DIIS: error= 4.11D-03 at cycle   4 NSaved=   4.
 NSaved= 4 IEnMin= 4 EnMin= -706.901417289598     IErMin= 4 ErrMin= 4.11D-03
 ErrMax= 4.11D-03  0.00D+00 EMaxC= 1.00D-01 BMatC= 5.65D-03 BMatP= 7.18D-02
 IDIUse=3 WtCom= 9.59D-01 WtEn= 4.11D-02
 Coeff-Com:  0.159D-02 0.159D+00 0.328D+00 0.512D+00
 Coeff-En:   0.000D+00 0.000D+00 0.000D+00 0.100D+01
 Coeff:      0.152D-02 0.152D+00 0.314D+00 0.532D+00
 Gap=     0.353 Goal=   None    Shift=    0.000
 RMSDP=2.49D-04 MaxDP=1.51D-02 DE=-5.32D-02 OVMax= 1.52D-02

 Cycle   5  Pass 0  IDiag  1:
 RMSU=  1.26D-04    CP:  1.00D+00  6.90D-01  6.65D-01  6.08D-01
 E= -706.905661342998     Delta-E=       -0.004244053400 Rises=F Damp=F
 DIIS: error= 8.05D-04 at cycle   5 NSaved=   5.
 NSaved= 5 IEnMin= 5 EnMin= -706.905661342998     IErMin= 5 ErrMin= 8.05D-04
 ErrMax= 8.05D-04  0.00D+00 EMaxC= 1.00D-01 BMatC= 1.56D-04 BMatP= 5.65D-03
 IDIUse=3 WtCom= 9.92D-01 WtEn= 8.05D-03
 Coeff-Com: -0.904D-03 0.134D-01 0.426D-01 0.169D+00 0.776D+00
 Coeff-En:   0.000D+00 0.000D+00 0.000D+00 0.000D+00 0.100D+01
 Coeff:     -0.896D-03 0.133D-01 0.423D-01 0.168D+00 0.777D+00
 Gap=     0.352 Goal=   None    Shift=    0.000
 RMSDP=5.31D-05 MaxDP=3.00D-03 DE=-4.24D-03 OVMax= 2.64D-03

 Cycle   6  Pass 0  IDiag  1:
 RMSU=  4.35D-05    CP:  1.00D+00  6.90D-01  6.71D-01  6.67D-01  9.87D-01
 E= -706.905771683398     Delta-E=       -0.000110340400 Rises=F Damp=F
 DIIS: error= 4.07D-04 at cycle   6 NSaved=   6.
 NSaved= 6 IEnMin= 6 EnMin= -706.905771683398     IErMin= 6 ErrMin= 4.07D-04
 ErrMax= 4.07D-04  0.00D+00 EMaxC= 1.00D-01 BMatC= 4.17D-05 BMatP= 1.56D-04
 IDIUse=3 WtCom= 9.96D-01 WtEn= 4.07D-03
 Coeff-Com: -0.735D-03-0.170D-01-0.249D-01 0.184D-01 0.426D+00 0.598D+00
 Coeff-En:   0.000D+00 0.000D+00 0.000D+00 0.000D+00 0.118D-01 0.988D+00
 Coeff:     -0.732D-03-0.169D-01-0.248D-01 0.184D-01 0.424D+00 0.600D+00
 Gap=     0.352 Goal=   None    Shift=    0.000
 RMSDP=2.40D-05 MaxDP=9.29D-04 DE=-1.10D-04 OVMax= 1.46D-03

 Cycle   7  Pass 0  IDiag  1:
 RMSU=  1.51D-05    CP:  1.00D+00  6.90D-01  6.75D-01  6.85D-01  1.08D+00
                    CP:  7.51D-01
 E= -706.905810372037     Delta-E=       -0.000038688639 Rises=F Damp=F
 DIIS: error= 8.95D-05 at cycle   7 NSaved=   7.
 NSaved= 7 IEnMin= 7 EnMin= -706.905810372037     IErMin= 7 ErrMin= 8.95D-05
 ErrMax= 8.95D-05  0.00D+00 EMaxC= 1.00D-01 BMatC= 1.99D-06 BMatP= 4.17D-05
 IDIUse=1 WtCom= 1.00D+00 WtEn= 0.00D+00
 Coeff-Com: -0.175D-03-0.814D-02-0.130D-01-0.428D-02 0.957D-01 0.219D+00
 Coeff-Com:  0.711D+00
 Coeff:     -0.175D-03-0.814D-02-0.130D-01-0.428D-02 0.957D-01 0.219D+00
 Coeff:      0.711D+00
 Gap=     0.352 Goal=   None    Shift=    0.000
 RMSDP=8.09D-06 MaxDP=3.20D-04 DE=-3.87D-05 OVMax= 8.94D-04

 Initial convergence to 1.0D-05 achieved.  Increase integral accuracy.
 Cycle   8  Pass 1  IDiag  1:
 E= -706.905877965792     Delta-E=       -0.000067593755 Rises=F Damp=F
 DIIS: error= 5.54D-05 at cycle   1 NSaved=   1.
 NSaved= 1 IEnMin= 1 EnMin= -706.905877965792     IErMin= 1 ErrMin= 5.54D-05
 ErrMax= 5.54D-05  0.00D+00 EMaxC= 1.00D-01 BMatC= 9.92D-07 BMatP= 9.92D-07
 IDIUse=1 WtCom= 1.00D+00 WtEn= 0.00D+00
 Coeff-Com:  0.100D+01
 Coeff:      0.100D+01
 Gap=     0.352 Goal=   None    Shift=    0.000
 RMSDP=8.09D-06 MaxDP=3.20D-04 DE=-6.76D-05 OVMax= 4.52D-04

 Cycle   9  Pass 1  IDiag  1:
 RMSU=  2.34D-05    CP:  1.00D+00
 E= -706.905878502684     Delta-E=       -0.000000536892 Rises=F Damp=F
 DIIS: error= 5.21D-05 at cycle   2 NSaved=   2.
 NSaved= 2 IEnMin= 2 EnMin= -706.905878502684     IErMin= 2 ErrMin= 5.21D-05
 ErrMax= 5.21D-05  0.00D+00 EMaxC= 1.00D-01 BMatC= 7.77D-07 BMatP= 9.92D-07
 IDIUse=1 WtCom= 1.00D+00 WtEn= 0.00D+00
 Coeff-Com:  0.461D+00 0.539D+00
 Coeff:      0.461D+00 0.539D+00
 Gap=     0.352 Goal=   None    Shift=    0.000
 RMSDP=3.92D-06 MaxDP=2.05D-04 DE=-5.37D-07 OVMax= 3.52D-04

 Cycle  10  Pass 1  IDiag  1:
 RMSU=  3.92D-06    CP:  1.00D+00  9.97D-01
 E= -706.905879180441     Delta-E=       -0.000000677757 Rises=F Damp=F
 DIIS: error= 1.87D-05 at cycle   3 NSaved=   3.
 NSaved= 3 IEnMin= 3 EnMin= -706.905879180441     IErMin= 3 ErrMin= 1.87D-05
 ErrMax= 1.87D-05  0.00D+00 EMaxC= 1.00D-01 BMatC= 8.60D-08 BMatP= 7.77D-07
 IDIUse=1 WtCom= 1.00D+00 WtEn= 0.00D+00
 Coeff-Com: -0.431D-01 0.221D+00 0.822D+00
 Coeff:     -0.431D-01 0.221D+00 0.822D+00
 Gap=     0.352 Goal=   None    Shift=    0.000
 RMSDP=1.49D-06 MaxDP=5.40D-05 DE=-6.78D-07 OVMax= 1.06D-04

 Cycle  11  Pass 1  IDiag  1:
 RMSU=  1.09D-06    CP:  1.00D+00  1.03D+00  8.65D-01
 E= -706.905879276217     Delta-E=       -0.000000095775 Rises=F Damp=F
 DIIS: error= 5.70D-06 at cycle   4 NSaved=   4.
 NSaved= 4 IEnMin= 4 EnMin= -706.905879276217     IErMin= 4 ErrMin= 5.70D-06
 ErrMax= 5.70D-06  0.00D+00 EMaxC= 1.00D-01 BMatC= 1.40D-08 BMatP= 8.60D-08
 IDIUse=1 WtCom= 1.00D+00 WtEn= 0.00D+00
 Coeff-Com: -0.558D-01 0.835D-01 0.434D+00 0.538D+00
 Coeff:     -0.558D-01 0.835D-01 0.434D+00 0.538D+00
 Gap=     0.352 Goal=   None    Shift=    0.000
 RMSDP=4.55D-07 MaxDP=2.00D-05 DE=-9.58D-08 OVMax= 2.63D-05

 Cycle  12  Pass 1  IDiag  1:
 RMSU=  4.31D-07    CP:  1.00D+00  1.04D+00  8.82D-01  1.08D+00
 E= -706.905879290350     Delta-E=       -0.000000014134 Rises=F Damp=F
 DIIS: error= 1.60D-06 at cycle   5 NSaved=   5.
 NSaved= 5 IEnMin= 5 EnMin= -706.905879290350     IErMin= 5 ErrMin= 1.60D-06
 ErrMax= 1.60D-06  0.00D+00 EMaxC= 1.00D-01 BMatC= 8.21D-10 BMatP= 1.40D-08
 IDIUse=1 WtCom= 1.00D+00 WtEn= 0.00D+00
 Coeff-Com:  0.312D-02-0.458D-01-0.155D+00 0.323D-01 0.117D+01
 Coeff:      0.312D-02-0.458D-01-0.155D+00 0.323D-01 0.117D+01
 Gap=     0.352 Goal=   None    Shift=    0.000
 RMSDP=3.69D-07 MaxDP=7.92D-06 DE=-1.41D-08 OVMax= 3.69D-05

 Cycle  13  Pass 1  IDiag  1:
 RMSU=  1.28D-07    CP:  1.00D+00  1.04D+00  9.00D-01  1.37D+00  1.31D+00
 E= -706.905879293390     Delta-E=       -0.000000003040 Rises=F Damp=F
 DIIS: error= 7.22D-07 at cycle   6 NSaved=   6.
 NSaved= 6 IEnMin= 6 EnMin= -706.905879293390     IErMin= 6 ErrMin= 7.22D-07
 ErrMax= 7.22D-07  0.00D+00 EMaxC= 1.00D-01 BMatC= 3.18D-10 BMatP= 8.21D-10
 IDIUse=1 WtCom= 1.00D+00 WtEn= 0.00D+00
 Coeff-Com:  0.683D-02-0.302D-01-0.117D+00-0.337D-01 0.606D+00 0.567D+00
 Coeff:      0.683D-02-0.302D-01-0.117D+00-0.337D-01 0.606D+00 0.567D+00
 Gap=     0.352 Goal=   None    Shift=    0.000
 RMSDP=8.18D-08 MaxDP=3.44D-06 DE=-3.04D-09 OVMax= 7.98D-06

 Cycle  14  Pass 1  IDiag  1:
 RMSU=  5.85D-08    CP:  1.00D+00  1.04D+00  9.02D-01  1.41D+00  1.37D+00
                    CP:  7.99D-01
 E= -706.905879293723     Delta-E=       -0.000000000333 Rises=F Damp=F
 DIIS: error= 2.65D-07 at cycle   7 NSaved=   7.
 NSaved= 7 IEnMin= 7 EnMin= -706.905879293723     IErMin= 7 ErrMin= 2.65D-07
 ErrMax= 2.65D-07  0.00D+00 EMaxC= 1.00D-01 BMatC= 2.92D-11 BMatP= 3.18D-10
 IDIUse=1 WtCom= 1.00D+00 WtEn= 0.00D+00
 Coeff-Com:  0.210D-02-0.480D-02-0.212D-01-0.188D-01 0.420D-01 0.232D+00
 Coeff-Com:  0.769D+00
 Coeff:      0.210D-02-0.480D-02-0.212D-01-0.188D-01 0.420D-01 0.232D+00
 Coeff:      0.769D+00
 Gap=     0.352 Goal=   None    Shift=    0.000
 RMSDP=3.35D-08 MaxDP=1.11D-06 DE=-3.33D-10 OVMax= 2.79D-06

 Cycle  15  Pass 1  IDiag  1:
 RMSU=  2.00D-08    CP:  1.00D+00  1.04D+00  9.02D-01  1.43D+00  1.40D+00
                    CP:  9.23D-01  9.99D-01
 E= -706.905879293760     Delta-E=       -0.000000000037 Rises=F Damp=F
 DIIS: error= 9.90D-08 at cycle   8 NSaved=   8.
 NSaved= 8 IEnMin= 8 EnMin= -706.905879293760     IErMin= 8 ErrMin= 9.90D-08
 ErrMax= 9.90D-08  0.00D+00 EMaxC= 1.00D-01 BMatC= 3.65D-12 BMatP= 2.92D-11
 IDIUse=1 WtCom= 1.00D+00 WtEn= 0.00D+00
 Coeff-Com: -0.279D-03 0.284D-02 0.106D-01-0.138D-02-0.813D-01-0.147D-02
 Coeff-Com:  0.286D+00 0.785D+00
 Coeff:     -0.279D-03 0.284D-02 0.106D-01-0.138D-02-0.813D-01-0.147D-02
 Coeff:      0.286D+00 0.785D+00
 Gap=     0.352 Goal=   None    Shift=    0.000
 RMSDP=1.23D-08 MaxDP=3.52D-07 DE=-3.66D-11 OVMax= 9.22D-07

 Cycle  16  Pass 1  IDiag  1:
 RMSU=  7.90D-09    CP:  1.00D+00  1.04D+00  9.03D-01  1.43D+00  1.40D+00
                    CP:  9.62D-01  1.11D+00  1.00D+00
 E= -706.905879293766     Delta-E=       -0.000000000006 Rises=F Damp=F
 DIIS: error= 4.19D-08 at cycle   9 NSaved=   9.
 NSaved= 9 IEnMin= 9 EnMin= -706.905879293766     IErMin= 9 ErrMin= 4.19D-08
 ErrMax= 4.19D-08  0.00D+00 EMaxC= 1.00D-01 BMatC= 3.25D-13 BMatP= 3.65D-12
 IDIUse=1 WtCom= 1.00D+00 WtEn= 0.00D+00
 Coeff-Com: -0.384D-03 0.155D-02 0.637D-02 0.285D-02-0.302D-01-0.320D-01
 Coeff-Com: -0.116D-01 0.223D+00 0.840D+00
 Coeff:     -0.384D-03 0.155D-02 0.637D-02 0.285D-02-0.302D-01-0.320D-01
 Coeff:     -0.116D-01 0.223D+00 0.840D+00
 Gap=     0.352 Goal=   None    Shift=    0.000
 RMSDP=4.20D-09 MaxDP=1.69D-07 DE=-6.37D-12 OVMax= 3.82D-07

 SCF Done:  E(RwB97XD) =  -706.905879294     A.U. after   16 cycles
            NFock= 16  Conv=0.42D-08     -V/T= 2.0092
 KE= 7.004638796098D+02 PE=-3.589050850686D+03 EE= 1.209138679269D+03
 Leave Link  502 at Tue May 28 17:07:20 2024, MaxMem=  7516192768 cpu:             312.3 elap:              13.1
 (Enter /software/gaussian/g16-c01/avx2/g16/l801.exe)
 DoSCS=F DFT=T ScalE2(SS,OS)=  1.000000  1.000000
 Range of M.O.s used for correlation:     1   262
 NBasis=   262 NAE=    56 NBE=    56 NFC=     0 NFV=     0
 NROrb=    262 NOA=    56 NOB=    56 NVA=   206 NVB=   206
 Leave Link  801 at Tue May 28 17:07:20 2024, MaxMem=  7516192768 cpu:               0.6 elap:               0.0
 (Enter /software/gaussian/g16-c01/avx2/g16/l1101.exe)
 Using compressed storage, NAtomX=    27.
 Will process     28 centers per pass.
 R6Disp: Adding Grimme-D2 dispersion energy 1st derivatives to the gradient.
 Leave Link 1101 at Tue May 28 17:07:21 2024, MaxMem=  7516192768 cpu:               5.7 elap:               0.3
 (Enter /software/gaussian/g16-c01/avx2/g16/l1102.exe)
 Symmetrizing basis deriv contribution to polar:
 IMax=3 JMax=2 DiffMx= 0.00D+00
 Leave Link 1102 at Tue May 28 17:07:21 2024, MaxMem=  7516192768 cpu:               1.0 elap:               0.1
 (Enter /software/gaussian/g16-c01/avx2/g16/l1110.exe)
 Forming Gx(P) for the SCF density, NAtomX=    27.
 Integral derivatives from FoFJK, PRISM(SPDF).
 Do as many integral derivatives as possible in FoFJK.
 G2DrvN: MDV=    7516189905.
 G2DrvN: will do    28 centers at a time, making    1 passes.
 Calling FoFCou, ICntrl=  3107 FMM=F I1Cent=   0 AccDes= 0.00D+00.
 FoFJK:  IHMeth= 1 ICntrl=    3107 DoSepK=T KAlg= 0 I1Cent=           0 FoldK=F
 IRaf=         1 NMat=       1 IRICut=       1 DoRegI=T DoRafI=F ISym2E= 0 IDoP0=0 IntGTp=1.
 FoFCou: FMM=F IPFlag=           0 FMFlag=      100000 FMFlg1=           0
         NFxFlg=           0 DoJE=F BraDBF=F KetDBF=F FulRan=T
         wScrn=  0.000000 ICntrl=      3507 IOpCl=  0 I1Cent=           0 NGrid=           0
         NMat0=    1 NMatS0=      1 NMatT0=    0 NMatD0=    1 NMtDS0=    0 NMtDT0=    0
 Symmetry not used in FoFCou.
 End of G2Drv F.D. properties file   721 does not exist.
 End of G2Drv F.D. properties file   722 does not exist.
 End of G2Drv F.D. properties file   788 does not exist.
 Leave Link 1110 at Tue May 28 17:07:40 2024, MaxMem=  7516192768 cpu:             420.0 elap:              17.6
 (Enter /software/gaussian/g16-c01/avx2/g16/l1002.exe)
 Minotr:  Closed shell wavefunction.
          IDoAtm=111111111111111111111111111
          Direct CPHF calculation.
          Differentiating once with respect to electric field.
                with respect to dipole field.
          Differentiating once with respect to nuclear coordinates.
          Requested convergence is 1.0D-08 RMS, and 1.0D-07 maximum.
          Secondary convergence is 1.0D-12 RMS, and 1.0D-12 maximum.
          NewPWx=T KeepS1=F KeepF1=F KeepIn=T MapXYZ=F SortEE=F KeepMc=T.
         8124 words used for storage of precomputed grid.
 Keep R1 ints in memory in canonical form, NReq=1222315208.
 FoFCou: FMM=F IPFlag=           0 FMFlag=           0 FMFlg1=           0
         NFxFlg=           0 DoJE=F BraDBF=F KetDBF=F FulRan=T
         wScrn=  0.000000 ICntrl=       600 IOpCl=  0 I1Cent=           0 NGrid=           0
         NMat0=    1 NMatS0=  34453 NMatT0=    0 NMatD0=    1 NMtDS0=    0 NMtDT0=    0
 Symmetry not used in FoFCou.
 Two-electron integral symmetry not used.
          MDV=    7516192768 using IRadAn=       1.
          Solving linear equations simultaneously, MaxMat=       0.
          There are    84 degrees of freedom in the 1st order CPHF.  IDoFFX=6 NUNeed=     3.
     81 vectors produced by pass  0 Test12= 1.37D-14 1.19D-09 XBig12= 9.03D+01 4.95D+00.
 AX will form    81 AO Fock derivatives at one time.
     81 vectors produced by pass  1 Test12= 1.37D-14 1.19D-09 XBig12= 1.07D+01 6.98D-01.
     81 vectors produced by pass  2 Test12= 1.37D-14 1.19D-09 XBig12= 2.75D-01 5.38D-02.
     81 vectors produced by pass  3 Test12= 1.37D-14 1.19D-09 XBig12= 2.33D-03 4.93D-03.
     81 vectors produced by pass  4 Test12= 1.37D-14 1.19D-09 XBig12= 1.33D-05 3.98D-04.
     81 vectors produced by pass  5 Test12= 1.37D-14 1.19D-09 XBig12= 7.68D-08 2.77D-05.
     78 vectors produced by pass  6 Test12= 1.37D-14 1.19D-09 XBig12= 3.43D-10 1.81D-06.
     17 vectors produced by pass  7 Test12= 1.37D-14 1.19D-09 XBig12= 1.52D-12 1.08D-07.
      3 vectors produced by pass  8 Test12= 1.37D-14 1.19D-09 XBig12= 6.57D-15 7.22D-09.
 InvSVY:  IOpt=1 It=  1 EMax= 3.55D-15
 Solved reduced A of dimension   584 with    84 vectors.
 FullF1:  Do perturbations      1 to       3.
 Isotropic polarizability for W=    0.000000      144.85 Bohr**3.
 End of Minotr F.D. properties file   721 does not exist.
 End of Minotr F.D. properties file   722 does not exist.
 End of Minotr F.D. properties file   788 does not exist.
 Leave Link 1002 at Tue May 28 17:08:07 2024, MaxMem=  7516192768 cpu:             642.9 elap:              26.9
 (Enter /software/gaussian/g16-c01/avx2/g16/l601.exe)
 Copying SCF densities to generalized density rwf, IOpCl= 0 IROHF=0.

 **********************************************************************

            Population analysis using the SCF Density.

 **********************************************************************

 Alpha  occ. eigenvalues --  -19.32166 -19.31019 -14.48365 -10.47074 -10.36708
 Alpha  occ. eigenvalues --  -10.35214 -10.31087 -10.30972 -10.30926 -10.30702
 Alpha  occ. eigenvalues --  -10.30668 -10.30512 -10.30509 -10.30449 -10.30423
 Alpha  occ. eigenvalues --  -10.30191  -1.21297  -1.16395  -1.05598  -0.96170
 Alpha  occ. eigenvalues --   -0.95200  -0.86340  -0.85409  -0.85044  -0.83447
 Alpha  occ. eigenvalues --   -0.74661  -0.71726  -0.71208  -0.69394  -0.65594
 Alpha  occ. eigenvalues --   -0.63769  -0.60896  -0.59533  -0.58316  -0.56896
 Alpha  occ. eigenvalues --   -0.56770  -0.54598  -0.53814  -0.52490  -0.52246
 Alpha  occ. eigenvalues --   -0.51398  -0.50996  -0.49471  -0.47607  -0.47042
 Alpha  occ. eigenvalues --   -0.45011  -0.44493  -0.44022  -0.42936  -0.41874
 Alpha  occ. eigenvalues --   -0.40214  -0.37841  -0.33427  -0.33160  -0.31329
 Alpha  occ. eigenvalues --   -0.30027
 Alpha virt. eigenvalues --    0.05216   0.06308   0.06324   0.06691   0.11265
 Alpha virt. eigenvalues --    0.13827   0.16957   0.17497   0.17973   0.22610
 Alpha virt. eigenvalues --    0.22933   0.23419   0.24206   0.24677   0.25487
 Alpha virt. eigenvalues --    0.26432   0.26573   0.27203   0.27809   0.29273
 Alpha virt. eigenvalues --    0.32186   0.34050   0.37295   0.37868   0.38193
 Alpha virt. eigenvalues --    0.40384   0.41847   0.42277   0.43268   0.43508
 Alpha virt. eigenvalues --    0.47606   0.53625   0.55695   0.58287   0.59114
 Alpha virt. eigenvalues --    0.60135   0.60862   0.61683   0.62905   0.63457
 Alpha virt. eigenvalues --    0.64351   0.65888   0.67125   0.67188   0.67782
 Alpha virt. eigenvalues --    0.67852   0.68158   0.68474   0.68917   0.69291
 Alpha virt. eigenvalues --    0.69775   0.69912   0.70232   0.70488   0.71236
 Alpha virt. eigenvalues --    0.73517   0.74986   0.75133   0.76567   0.77141
 Alpha virt. eigenvalues --    0.80177   0.83203   0.83882   0.85027   0.87550
 Alpha virt. eigenvalues --    0.91205   0.91703   0.92452   0.92882   0.93346
 Alpha virt. eigenvalues --    0.93425   0.94059   0.94664   0.95607   0.96661
 Alpha virt. eigenvalues --    0.98865   0.99691   1.01580   1.01915   1.03003
 Alpha virt. eigenvalues --    1.03312   1.04816   1.06177   1.07642   1.08781
 Alpha virt. eigenvalues --    1.10359   1.13045   1.14901   1.15899   1.19023
 Alpha virt. eigenvalues --    1.20166   1.21529   1.24396   1.25906   1.26289
 Alpha virt. eigenvalues --    1.27054   1.28484   1.31066   1.31735   1.33196
 Alpha virt. eigenvalues --    1.35525   1.37763   1.39606   1.44697   1.47990
 Alpha virt. eigenvalues --    1.48759   1.50190   1.50655   1.52420   1.53443
 Alpha virt. eigenvalues --    1.53747   1.55332   1.56836   1.57031   1.57682
 Alpha virt. eigenvalues --    1.58311   1.58568   1.59010   1.66662   1.69064
 Alpha virt. eigenvalues --    1.71207   1.79939   1.83088   1.85514   1.86927
 Alpha virt. eigenvalues --    1.88826   1.89957   1.91584   1.93147   1.93653
 Alpha virt. eigenvalues --    1.95609   1.97372   1.99106   2.01092   2.02489
 Alpha virt. eigenvalues --    2.03962   2.04671   2.05901   2.06197   2.06365
 Alpha virt. eigenvalues --    2.07255   2.09561   2.15143   2.16243   2.18417
 Alpha virt. eigenvalues --    2.21159   2.21906   2.22852   2.23191   2.23465
 Alpha virt. eigenvalues --    2.25832   2.26453   2.31210   2.32493   2.33427
 Alpha virt. eigenvalues --    2.36939   2.38762   2.39187   2.40228   2.40840
 Alpha virt. eigenvalues --    2.48282   2.48735   2.51932   2.59300   2.61102
 Alpha virt. eigenvalues --    2.63617   2.65790   2.67518   2.70488   2.73702
 Alpha virt. eigenvalues --    2.74702   2.75258   2.80558   2.80873   2.81384
 Alpha virt. eigenvalues --    2.82401   2.82875   2.84451   2.87083   2.91028
 Alpha virt. eigenvalues --    2.92611   2.93263   3.02578   3.09707   3.12470
 Alpha virt. eigenvalues --    3.18375   3.20048   3.40938   3.51414   3.52417
 Alpha virt. eigenvalues --    4.12441   4.18794   4.19157   4.19992   4.21272
 Alpha virt. eigenvalues --    4.21646   4.26230   4.31681   4.38424   4.42414
 Alpha virt. eigenvalues --    4.42887   4.46893   4.51594   4.65101   4.82169
 Alpha virt. eigenvalues --    4.84122
          Condensed to atoms (all electrons):
               1          2          3          4          5          6
     1  C    4.879788   0.522869  -0.015244  -0.039572  -0.030230   0.556533
     2  C    0.522869   5.000569   0.563056  -0.061421  -0.039770  -0.044623
     3  C   -0.015244   0.563056   4.495981   0.548454  -0.017572  -0.033785
     4  C   -0.039572  -0.061421   0.548454   4.960967   0.539886  -0.044462
     5  C   -0.030230  -0.039770  -0.017572   0.539886   4.864510   0.554645
     6  C    0.556533  -0.044623  -0.033785  -0.044462   0.554645   4.871144
     7  H    0.367484  -0.033214   0.002491   0.000731   0.003717  -0.036886
     8  H   -0.034141   0.357937  -0.033473   0.004544   0.000142   0.003655
     9  H    0.000048   0.005416  -0.040140   0.363030  -0.036441   0.004029
    10  H    0.003842   0.000576   0.003003  -0.035023   0.368623  -0.037060
    11  H   -0.037456   0.003911   0.000520   0.003803  -0.037682   0.370928
    12  N    0.005865  -0.069793   0.275488  -0.058439   0.004393   0.000287
    13  C    0.000455  -0.002861  -0.052938   0.005581  -0.000184   0.000009
    14  H   -0.000017   0.000980  -0.000251  -0.001780   0.000040  -0.000000
    15  O    0.000163  -0.001728  -0.001685   0.000040  -0.000000  -0.000001
    16  O    0.000002   0.000026   0.003137  -0.000196  -0.000001   0.000000
    17  C   -0.000000  -0.000000  -0.000024   0.000004   0.000000   0.000000
    18  C   -0.000000  -0.000001  -0.000042   0.000002  -0.000000   0.000000
    19  C   -0.000000  -0.000001  -0.000012   0.000000  -0.000000   0.000000
    20  C    0.000000  -0.000000  -0.000001   0.000000  -0.000000  -0.000000
    21  H   -0.000000  -0.000000   0.000008  -0.000003  -0.000000   0.000000
    22  C   -0.000000   0.000000   0.000000   0.000000   0.000000  -0.000000
    23  H   -0.000000  -0.000000  -0.000000  -0.000000  -0.000000   0.000000
    24  C    0.000000  -0.000000   0.000000  -0.000000   0.000000   0.000000
    25  H    0.000000   0.000000   0.000000  -0.000000   0.000000   0.000000
    26  H    0.000000   0.000000   0.000000  -0.000000  -0.000000  -0.000000
    27  H   -0.000000  -0.000000  -0.000000   0.000000   0.000000  -0.000000
               7          8          9         10         11         12
     1  C    0.367484  -0.034141   0.000048   0.003842  -0.037456   0.005865
     2  C   -0.033214   0.357937   0.005416   0.000576   0.003911  -0.069793
     3  C    0.002491  -0.033473  -0.040140   0.003003   0.000520   0.275488
     4  C    0.000731   0.004544   0.363030  -0.035023   0.003803  -0.058439
     5  C    0.003717   0.000142  -0.036441   0.368623  -0.037682   0.004393
     6  C   -0.036886   0.003655   0.004029  -0.037060   0.370928   0.000287
     7  H    0.530036  -0.003741   0.000013  -0.000149  -0.003961  -0.000113
     8  H   -0.003741   0.508659  -0.000111   0.000011  -0.000123  -0.012324
     9  H    0.000013  -0.000111   0.541061  -0.004424  -0.000130  -0.002932
    10  H   -0.000149   0.000011  -0.004424   0.533439  -0.003973  -0.000100
    11  H   -0.003961  -0.000123  -0.000130  -0.003973   0.535398   0.000003
    12  N   -0.000113  -0.012324  -0.002932  -0.000100   0.000003   7.325682
    13  C   -0.000002   0.005146  -0.000043   0.000002  -0.000000   0.371003
    14  H    0.000000  -0.000107   0.001153  -0.000001  -0.000000   0.158155
    15  O   -0.000000   0.009565   0.000002  -0.000000   0.000000  -0.044061
    16  O   -0.000000   0.000070  -0.000134  -0.000000   0.000000  -0.217796
    17  C    0.000000   0.000002   0.000005   0.000000  -0.000000   0.008607
    18  C    0.000000  -0.000000  -0.000002   0.000000   0.000000  -0.000796
    19  C    0.000000  -0.000001  -0.000000   0.000000  -0.000000   0.000457
    20  C   -0.000000  -0.000000  -0.000000   0.000000   0.000000  -0.000042
    21  H   -0.000000  -0.000000   0.000017  -0.000000  -0.000000   0.000215
    22  C    0.000000   0.000000   0.000000  -0.000000   0.000000   0.000003
    23  H   -0.000000   0.000000  -0.000000   0.000000  -0.000000   0.000045
    24  C   -0.000000   0.000000   0.000000  -0.000000  -0.000000   0.000001
    25  H   -0.000000   0.000000  -0.000000  -0.000000   0.000000   0.000000
    26  H   -0.000000  -0.000000  -0.000000   0.000000   0.000000  -0.000000
    27  H    0.000000  -0.000000  -0.000000   0.000000  -0.000000   0.000000
              13         14         15         16         17         18
     1  C    0.000455  -0.000017   0.000163   0.000002  -0.000000  -0.000000
     2  C   -0.002861   0.000980  -0.001728   0.000026  -0.000000  -0.000001
     3  C   -0.052938  -0.000251  -0.001685   0.003137  -0.000024  -0.000042
     4  C    0.005581  -0.001780   0.000040  -0.000196   0.000004   0.000002
     5  C   -0.000184   0.000040  -0.000000  -0.000001   0.000000  -0.000000
     6  C    0.000009  -0.000000  -0.000001   0.000000   0.000000   0.000000
     7  H   -0.000002   0.000000  -0.000000  -0.000000   0.000000   0.000000
     8  H    0.005146  -0.000107   0.009565   0.000070   0.000002  -0.000000
     9  H   -0.000043   0.001153   0.000002  -0.000134   0.000005  -0.000002
    10  H    0.000002  -0.000001  -0.000000  -0.000000   0.000000   0.000000
    11  H   -0.000000  -0.000000   0.000000   0.000000  -0.000000   0.000000
    12  N    0.371003   0.158155  -0.044061  -0.217796   0.008607  -0.000796
    13  C    4.261461  -0.075373   0.586342   0.146048  -0.008954   0.000773
    14  H   -0.075373   0.308476   0.003465   0.116773  -0.007043   0.000957
    15  O    0.586342   0.003465   7.904425  -0.041533   0.000300   0.000030
    16  O    0.146048   0.116773  -0.041533   8.616772   0.168533  -0.043570
    17  C   -0.008954  -0.007043   0.000300   0.168533   4.506152   0.553611
    18  C    0.000773   0.000957   0.000030  -0.043570   0.553611   4.984581
    19  C   -0.001740   0.001816   0.001649  -0.048180   0.561384  -0.067325
    20  C   -0.000049   0.000222   0.000005   0.003864  -0.020429   0.528303
    21  H   -0.000152   0.003804  -0.000005  -0.003989  -0.037581   0.361372
    22  C    0.000063  -0.000058  -0.000031   0.003347  -0.020452  -0.036955
    23  H    0.001098  -0.000106   0.001869  -0.003743  -0.033522   0.004968
    24  C    0.000031   0.000001  -0.000001   0.000219  -0.035343  -0.047044
    25  H    0.000000  -0.000009  -0.000000  -0.000057   0.002694  -0.033265
    26  H   -0.000004   0.000001  -0.000000  -0.000058   0.003052   0.000554
    27  H    0.000000  -0.000000   0.000000   0.000002   0.000557   0.003913
              19         20         21         22         23         24
     1  C   -0.000000   0.000000  -0.000000  -0.000000  -0.000000   0.000000
     2  C   -0.000001  -0.000000  -0.000000   0.000000  -0.000000  -0.000000
     3  C   -0.000012  -0.000001   0.000008   0.000000  -0.000000   0.000000
     4  C    0.000000   0.000000  -0.000003   0.000000  -0.000000  -0.000000
     5  C   -0.000000  -0.000000  -0.000000   0.000000  -0.000000   0.000000
     6  C    0.000000  -0.000000   0.000000  -0.000000   0.000000   0.000000
     7  H    0.000000  -0.000000  -0.000000   0.000000  -0.000000  -0.000000
     8  H   -0.000001  -0.000000  -0.000000   0.000000   0.000000   0.000000
     9  H   -0.000000  -0.000000   0.000017   0.000000  -0.000000   0.000000
    10  H    0.000000   0.000000  -0.000000  -0.000000   0.000000  -0.000000
    11  H   -0.000000   0.000000  -0.000000   0.000000  -0.000000  -0.000000
    12  N    0.000457  -0.000042   0.000215   0.000003   0.000045   0.000001
    13  C   -0.001740  -0.000049  -0.000152   0.000063   0.001098   0.000031
    14  H    0.001816   0.000222   0.003804  -0.000058  -0.000106   0.000001
    15  O    0.001649   0.000005  -0.000005  -0.000031   0.001869  -0.000001
    16  O   -0.048180   0.003864  -0.003989   0.003347  -0.003743   0.000219
    17  C    0.561384  -0.020429  -0.037581  -0.020452  -0.033522  -0.035343
    18  C   -0.067325   0.528303   0.361372  -0.036955   0.004968  -0.047044
    19  C    4.947735  -0.036203   0.004741   0.530170   0.363911  -0.043575
    20  C   -0.036203   4.869834  -0.033390  -0.031744   0.000058   0.559888
    21  H    0.004741  -0.033390   0.532740   0.000143  -0.000117   0.003805
    22  C    0.530170  -0.031744   0.000143   4.877863  -0.035282   0.553624
    23  H    0.363911   0.000058  -0.000117  -0.035282   0.507750   0.003781
    24  C   -0.043575   0.559888   0.003805   0.553624   0.003781   4.871019
    25  H    0.000536   0.367206  -0.004190   0.003802   0.000011  -0.036133
    26  H   -0.033739   0.003837   0.000011   0.368320  -0.004078  -0.037163
    27  H    0.003716  -0.037483  -0.000128  -0.037280  -0.000117   0.371353
              25         26         27
     1  C    0.000000   0.000000  -0.000000
     2  C    0.000000   0.000000  -0.000000
     3  C    0.000000   0.000000  -0.000000
     4  C   -0.000000  -0.000000   0.000000
     5  C    0.000000  -0.000000   0.000000
     6  C    0.000000  -0.000000  -0.000000
     7  H   -0.000000  -0.000000   0.000000
     8  H    0.000000  -0.000000  -0.000000
     9  H   -0.000000  -0.000000  -0.000000
    10  H   -0.000000   0.000000   0.000000
    11  H    0.000000   0.000000  -0.000000
    12  N    0.000000  -0.000000   0.000000
    13  C    0.000000  -0.000004   0.000000
    14  H   -0.000009   0.000001  -0.000000
    15  O   -0.000000  -0.000000   0.000000
    16  O   -0.000057  -0.000058   0.000002
    17  C    0.002694   0.003052   0.000557
    18  C   -0.033265   0.000554   0.003913
    19  C    0.000536  -0.033739   0.003716
    20  C    0.367206   0.003837  -0.037483
    21  H   -0.004190   0.000011  -0.000128
    22  C    0.003802   0.368320  -0.037280
    23  H    0.000011  -0.004078  -0.000117
    24  C   -0.036133  -0.037163   0.371353
    25  H    0.529457  -0.000147  -0.003964
    26  H   -0.000147   0.527715  -0.003971
    27  H   -0.003964  -0.003971   0.533049
 Mulliken charges:
               1
     1  C   -0.180389
     2  C   -0.201930
     3  C    0.303027
     4  C   -0.186148
     5  C   -0.174078
     6  C   -0.164413
     7  H    0.173593
     8  H    0.194289
     9  H    0.169581
    10  H    0.171235
    11  H    0.168763
    12  N   -0.743807
    13  C    0.764287
    14  H    0.488902
    15  O   -0.418810
    16  O   -0.699535
    17  C    0.358446
    18  C   -0.210065
    19  C   -0.185338
    20  C   -0.173875
    21  H    0.172698
    22  C   -0.175533
    23  H    0.193477
    24  C   -0.164463
    25  H    0.174060
    26  H    0.175671
    27  H    0.170355
 Sum of Mulliken charges =  -0.00000
 Mulliken charges with hydrogens summed into heavy atoms:
               1
     1  C   -0.006796
     2  C   -0.007641
     3  C    0.303027
     4  C   -0.016567
     5  C   -0.002843
     6  C    0.004350
    12  N   -0.743807
    13  C    0.764287
    15  O   -0.418810
    16  O   -0.210633
    17  C    0.358446
    18  C   -0.037367
    19  C    0.008138
    20  C    0.000185
    22  C    0.000138
    24  C    0.005892
 APT charges:
               1
     1  C    0.029600
     2  C   -0.171830
     3  C    0.575574
     4  C   -0.150325
     5  C    0.047998
     6  C   -0.099093
     7  H    0.021330
     8  H    0.074751
     9  H    0.045168
    10  H    0.021309
    11  H    0.025357
    12  N   -1.219969
    13  C    1.668116
    14  H    0.754808
    15  O   -0.780532
    16  O   -1.370792
    17  C    0.649009
    18  C   -0.153811
    19  C   -0.145630
    20  C    0.034976
    21  H    0.042933
    22  C    0.045725
    23  H    0.071500
    24  C   -0.092712
    25  H    0.025360
    26  H    0.024548
    27  H    0.026635
 Sum of APT charges =  -0.00000
 APT charges with hydrogens summed into heavy atoms:
               1
     1  C    0.050930
     2  C   -0.097079
     3  C    0.575574
     4  C   -0.105157
     5  C    0.069306
     6  C   -0.073735
    12  N   -1.219969
    13  C    1.668116
    15  O   -0.780532
    16  O   -0.615985
    17  C    0.649009
    18  C   -0.110879
    19  C   -0.074130
    20  C    0.060335
    22  C    0.070273
    24  C   -0.066078
 Electronic spatial extent (au):  <R**2>=          10628.7837
 Charge=             -0.0000 electrons
 Dipole moment (field-independent basis, Debye):
    X=             -0.3904    Y=              1.5116    Z=              1.1074  Tot=              1.9141
 Quadrupole moment (field-independent basis, Debye-Ang):
   XX=            -82.5472   YY=            -86.9502   ZZ=            -90.1214
   XY=              4.0433   XZ=              9.7057   YZ=              2.0631
 Traceless Quadrupole moment (field-independent basis, Debye-Ang):
   XX=              3.9924   YY=             -0.4106   ZZ=             -3.5818
   XY=              4.0433   XZ=              9.7057   YZ=              2.0631
 Octapole moment (field-independent basis, Debye-Ang**2):
  XXX=           -920.9818  YYY=             74.3548  ZZZ=           -232.4598  XYY=           -325.6296
  XXY=              8.4245  XXZ=              3.0716  XZZ=           -292.6622  YZZ=             29.5643
  YYZ=            -76.3606  XYZ=              9.8211
 Hexadecapole moment (field-independent basis, Debye-Ang**3):
 XXXX=         -11698.3785 YYYY=           -724.1464 ZZZZ=          -1195.2109 XXXY=            -75.1196
 XXXZ=           -908.9149 YYYX=            285.5309 YYYZ=            -11.0978 ZZZX=          -1476.0364
 ZZZY=             19.9069 XXYY=          -2105.5413 XXZZ=          -1939.1971 YYZZ=           -317.2396
 XXYZ=             10.5364 YYXZ=           -506.1474 ZZXY=            129.5933
 N-N= 9.725424125129D+02 E-N=-3.589050852619D+03  KE= 7.004638796098D+02
  Exact polarizability:     201.537     -17.368     143.076      36.644      11.797      89.950
 Approx polarizability:     189.007     -23.292     188.121      25.093      11.981     108.388
 No NMR shielding tensors so no spin-rotation constants.
 Leave Link  601 at Tue May 28 17:08:07 2024, MaxMem=  7516192768 cpu:               3.2 elap:               0.2
 (Enter /software/gaussian/g16-c01/avx2/g16/l701.exe)
 ... and contract with generalized density number  0.
 Compute integral second derivatives.
 R6Disp: Adding Grimme-D2 dispersion energy 2nd derivatives to the Hessian.
 Leave Link  701 at Tue May 28 17:08:07 2024, MaxMem=  7516192768 cpu:               4.3 elap:               0.2
 (Enter /software/gaussian/g16-c01/avx2/g16/l702.exe)
 L702 exits ... SP integral derivatives will be done elsewhere.
 Leave Link  702 at Tue May 28 17:08:07 2024, MaxMem=  7516192768 cpu:               0.3 elap:               0.0
 (Enter /software/gaussian/g16-c01/avx2/g16/l703.exe)
 Integral derivatives from FoFJK, PRISM(SPDF).
 Compute integral second derivatives, UseDBF=F ICtDFT=           0.
 Calling FoFJK, ICntrl=    100127 FMM=F ISym2X=0 I1Cent= 0 IOpClX= 0 NMat=1 NMatS=1 NMatT=0.
 FoFJK:  IHMeth= 1 ICntrl=  100127 DoSepK=T KAlg= 0 I1Cent=           0 FoldK=F
 IRaf=         1 NMat=       1 IRICut=       1 DoRegI=T DoRafI=F ISym2E= 0 IDoP0=0 IntGTp=1.
 FoFCou: FMM=F IPFlag=           0 FMFlag=      100000 FMFlg1=         800
         NFxFlg=           0 DoJE=F BraDBF=F KetDBF=F FulRan=T
         wScrn=  0.000000 ICntrl=    100527 IOpCl=  0 I1Cent=           0 NGrid=           0
         NMat0=    1 NMatS0=      1 NMatT0=    0 NMatD0=    1 NMtDS0=    0 NMtDT0=    0
 Symmetry not used in FoFCou.
 Leave Link  703 at Tue May 28 17:08:52 2024, MaxMem=  7516192768 cpu:            1075.8 elap:              44.9
 (Enter /software/gaussian/g16-c01/avx2/g16/l716.exe)
 Dipole        =-1.53608786D-01 5.94706701D-01 4.35672558D-01
 Polarizability= 2.01537318D+02-1.73679361D+01 1.43075501D+02
                 3.66437085D+01 1.17965898D+01 8.99500638D+01
 Full mass-weighted force constant matrix:
 Low frequencies ----1616.7963   -0.0006   -0.0004    0.0005    0.4098    7.2637
 Low frequencies ---   11.0827   25.0198   30.3117
 ******    1 imaginary frequencies (negative Signs) ****** 
 Diagonal vibrational polarizability:
      275.3579441      18.1342296      34.2436887
 Harmonic frequencies (cm**-1), IR intensities (KM/Mole), Raman scattering
 activities (A**4/AMU), depolarization ratios for plane and unpolarized
 incident light, reduced masses (AMU), force constants (mDyne/A),
 and normal coordinates:
                      1                      2                      3
                      A                      A                      A
 Frequencies --  -1616.7958                24.9757                30.1805
 Red. masses --      1.1100                 3.8015                 5.6790
 Frc consts  --      1.7096                 0.0014                 0.0030
 IR Inten    --   2352.4257                 0.0303                 0.5626
  Atom  AN      X      Y      Z        X      Y      Z        X      Y      Z
     1   6    -0.00  -0.00   0.00     0.02   0.03   0.19    -0.06  -0.00  -0.13
     2   6    -0.01  -0.00   0.00     0.02   0.02   0.16    -0.06   0.00  -0.02
     3   6     0.00  -0.01   0.00     0.02   0.01  -0.01    -0.06   0.00   0.03
     4   6     0.00  -0.00   0.00     0.03   0.01  -0.15    -0.06   0.00  -0.04
     5   6     0.00   0.00  -0.00     0.03   0.02  -0.12    -0.07  -0.01  -0.15
     6   6    -0.00  -0.00   0.00     0.02   0.03   0.06    -0.07  -0.01  -0.20
     7   1    -0.01  -0.00   0.00     0.01   0.04   0.33    -0.06  -0.01  -0.17
     8   1    -0.00  -0.00   0.00     0.01   0.03   0.27    -0.06   0.00   0.03
     9   1     0.01  -0.01   0.00     0.03  -0.00  -0.29    -0.07   0.00  -0.00
    10   1    -0.00   0.00  -0.00     0.03   0.01  -0.23    -0.07  -0.01  -0.21
    11   1    -0.00   0.00  -0.00     0.02   0.03   0.08    -0.07  -0.01  -0.29
    12   7    -0.02  -0.01   0.00     0.02   0.00  -0.05    -0.06   0.01   0.12
    13   6    -0.08  -0.01  -0.00     0.02  -0.00  -0.03    -0.06   0.01   0.16
    14   1     0.99  -0.04   0.01     0.02  -0.00  -0.06    -0.06   0.01   0.12
    15   8     0.01   0.00  -0.00     0.01   0.00  -0.00    -0.06   0.01   0.19
    16   8     0.01   0.02  -0.01     0.02  -0.00  -0.04    -0.07   0.01   0.12
    17   6     0.01   0.01   0.01    -0.00  -0.01  -0.02     0.01   0.00   0.05
    18   6    -0.00   0.00   0.00    -0.14  -0.10   0.08     0.02  -0.06   0.12
    19   6    -0.00   0.00  -0.00     0.11   0.07  -0.10     0.10   0.05  -0.09
    20   6    -0.00  -0.00   0.00    -0.17  -0.11   0.10     0.12  -0.06   0.04
    21   1    -0.00   0.00   0.00    -0.23  -0.16   0.14    -0.05  -0.10   0.23
    22   6    -0.00   0.00  -0.00     0.08   0.06  -0.08     0.20   0.05  -0.16
    23   1    -0.00  -0.00  -0.00     0.21   0.14  -0.18     0.09   0.10  -0.14
    24   6    -0.00   0.00  -0.00    -0.06  -0.03   0.03     0.21  -0.01  -0.10
    25   1    -0.00  -0.00  -0.00    -0.28  -0.18   0.18     0.13  -0.11   0.09
    26   1    -0.00  -0.00  -0.00     0.16   0.12  -0.14     0.27   0.09  -0.28
    27   1    -0.00  -0.00  -0.00    -0.09  -0.04   0.04     0.29  -0.01  -0.16
                      4                      5                      6
                      A                      A                      A
 Frequencies --     34.9649                76.4675               102.8035
 Red. masses --      4.3652                 7.8611                 6.1192
 Frc consts  --      0.0031                 0.0271                 0.0381
 IR Inten    --      0.4561                 5.2709                 0.7407
  Atom  AN      X      Y      Z        X      Y      Z        X      Y      Z
     1   6    -0.03   0.06  -0.14     0.12  -0.07  -0.04     0.03   0.00  -0.07
     2   6    -0.03  -0.00  -0.16     0.12   0.02  -0.10     0.03   0.00   0.19
     3   6     0.02  -0.02  -0.01     0.04   0.07  -0.07     0.03   0.00   0.26
     4   6     0.07   0.01   0.16    -0.05   0.03   0.01     0.04   0.01   0.17
     5   6     0.07   0.07   0.17    -0.05  -0.07   0.07     0.04   0.00  -0.09
     6   6     0.02   0.10   0.03     0.03  -0.12   0.05     0.04  -0.00  -0.23
     7   1    -0.07   0.08  -0.26     0.19  -0.11  -0.06     0.02   0.00  -0.16
     8   1    -0.08  -0.03  -0.29     0.18   0.06  -0.16     0.03   0.01   0.28
     9   1     0.11  -0.00   0.27    -0.11   0.07   0.02     0.05   0.00   0.25
    10   1     0.11   0.10   0.30    -0.12  -0.10   0.13     0.05  -0.00  -0.19
    11   1     0.02   0.14   0.04     0.03  -0.19   0.10     0.04  -0.01  -0.46
    12   7     0.02  -0.08  -0.02     0.03   0.14  -0.12     0.03   0.00   0.33
    13   6    -0.01  -0.10   0.03     0.04   0.14   0.13     0.03  -0.00   0.09
    14   1     0.02  -0.11  -0.09     0.10   0.11  -0.23     0.01  -0.01   0.04
    15   8    -0.03  -0.10   0.09     0.00   0.15   0.46     0.05  -0.00  -0.04
    16   8     0.02  -0.12  -0.05     0.03   0.02  -0.12     0.02   0.01  -0.13
    17   6     0.00  -0.04  -0.04     0.02   0.02  -0.10     0.02   0.02  -0.13
    18   6    -0.13  -0.06  -0.02     0.00  -0.01  -0.07    -0.02   0.02  -0.13
    19   6     0.11   0.05  -0.03    -0.03  -0.02  -0.10    -0.00   0.01  -0.09
    20   6    -0.15   0.02   0.00    -0.07  -0.10  -0.02    -0.11  -0.01  -0.06
    21   1    -0.22  -0.14  -0.01     0.03   0.02  -0.08    -0.00   0.03  -0.17
    22   6     0.09   0.13  -0.02    -0.11  -0.10  -0.04    -0.09  -0.02  -0.02
    23   1     0.22   0.07  -0.05    -0.03   0.01  -0.13     0.03   0.02  -0.10
    24   6    -0.04   0.11   0.00    -0.13  -0.15   0.00    -0.15  -0.04  -0.00
    25   1    -0.26   0.00   0.02    -0.08  -0.13   0.02    -0.15  -0.03  -0.04
    26   1     0.18   0.20  -0.02    -0.15  -0.14  -0.03    -0.12  -0.04   0.02
    27   1    -0.06   0.17   0.01    -0.20  -0.21   0.05    -0.23  -0.07   0.06
                      7                      8                      9
                      A                      A                      A
 Frequencies --    129.1294               214.4595               270.1923
 Red. masses --      6.2622                 5.1627                 7.0894
 Frc consts  --      0.0615                 0.1399                 0.3049
 IR Inten    --     26.8922                36.3322                32.5987
  Atom  AN      X      Y      Z        X      Y      Z        X      Y      Z
     1   6    -0.15   0.06   0.01    -0.04  -0.01   0.00    -0.17   0.04   0.00
     2   6    -0.14  -0.08  -0.03    -0.04   0.01  -0.04    -0.15   0.04   0.00
     3   6    -0.03  -0.15  -0.03    -0.04   0.01  -0.03    -0.08   0.01   0.00
     4   6     0.08  -0.08  -0.03    -0.06   0.00  -0.04    -0.16  -0.01   0.00
     5   6     0.09   0.06   0.00    -0.07  -0.02   0.00    -0.17   0.00   0.00
     6   6    -0.03   0.13   0.03    -0.06  -0.02   0.04    -0.20   0.02  -0.00
     7   1    -0.24   0.12   0.02    -0.03  -0.02   0.02    -0.15   0.02   0.00
     8   1    -0.24  -0.14  -0.04    -0.04   0.01  -0.05    -0.18   0.02   0.00
     9   1     0.18  -0.14  -0.05    -0.09   0.01  -0.05    -0.20   0.02   0.00
    10   1     0.18   0.12   0.01    -0.08  -0.02   0.01    -0.15   0.02  -0.00
    11   1    -0.03   0.24   0.06    -0.06  -0.03   0.09    -0.20   0.01  -0.01
    12   7    -0.04  -0.19  -0.04    -0.02  -0.02   0.01    -0.03   0.04   0.00
    13   6     0.07  -0.10   0.03    -0.10  -0.08   0.02     0.14   0.13  -0.02
    14   1    -0.18  -0.03   0.03    -0.09  -0.05   0.04     0.14   0.05   0.01
    15   8     0.29  -0.05   0.13    -0.19  -0.08  -0.04     0.34   0.16  -0.02
    16   8    -0.04   0.18   0.01     0.05   0.00   0.01     0.02  -0.08  -0.02
    17   6    -0.01   0.16  -0.03     0.18   0.09  -0.10     0.11  -0.17  -0.04
    18   6     0.06   0.12   0.03     0.23   0.11  -0.10     0.05  -0.12  -0.11
    19   6    -0.07   0.10  -0.09     0.23   0.13  -0.08     0.17  -0.12   0.04
    20   6     0.04  -0.02   0.04     0.04  -0.00   0.05    -0.04  -0.01  -0.05
    21   1     0.12   0.18   0.07     0.30   0.16  -0.15     0.02  -0.17  -0.21
    22   6    -0.10  -0.04  -0.07     0.06   0.01   0.07     0.11   0.00   0.12
    23   1    -0.12   0.15  -0.14     0.33   0.16  -0.12     0.27  -0.18   0.11
    24   6    -0.05  -0.11   0.01    -0.10  -0.11   0.20    -0.01   0.04   0.08
    25   1     0.09  -0.07   0.10    -0.02  -0.03   0.08    -0.13   0.04  -0.11
    26   1    -0.17  -0.10  -0.11     0.01  -0.02   0.11     0.14   0.05   0.21
    27   1    -0.09  -0.22   0.03    -0.31  -0.24   0.36    -0.08   0.10   0.14
                     10                     11                     12
                      A                      A                      A
 Frequencies --    276.7969               364.5269               390.8129
 Red. masses --      5.7617                 6.0865                 6.9793
 Frc consts  --      0.2601                 0.4765                 0.6281
 IR Inten    --      8.6137               238.0933                69.9248
  Atom  AN      X      Y      Z        X      Y      Z        X      Y      Z
     1   6     0.03  -0.00  -0.03    -0.06  -0.01   0.01     0.14  -0.01   0.02
     2   6     0.02  -0.02  -0.25    -0.05  -0.21   0.03     0.11   0.10   0.03
     3   6     0.01  -0.00  -0.07     0.01  -0.23  -0.00    -0.00   0.12  -0.04
     4   6     0.02  -0.01  -0.25     0.14  -0.19   0.03    -0.00   0.14   0.03
     5   6     0.03   0.00  -0.05     0.18   0.01   0.01    -0.00   0.03   0.02
     6   6     0.03   0.01   0.25     0.07   0.08  -0.03     0.09  -0.04  -0.04
     7   1     0.02   0.00   0.00    -0.21   0.07   0.02     0.18  -0.03   0.05
     8   1     0.03  -0.02  -0.34    -0.14  -0.27   0.04     0.22   0.16   0.06
     9   1     0.03  -0.02  -0.33     0.30  -0.29   0.05    -0.04   0.16   0.06
    10   1     0.02   0.00  -0.03     0.29   0.08   0.01    -0.10  -0.02   0.05
    11   1     0.03   0.03   0.58     0.07   0.18  -0.06     0.09  -0.11  -0.09
    12   7     0.00   0.03   0.40    -0.05   0.13  -0.06    -0.07  -0.06  -0.08
    13   6     0.02   0.03   0.16     0.07   0.25  -0.00    -0.02  -0.05   0.05
    14   1     0.04   0.02   0.14     0.15   0.18   0.05     0.08  -0.06   0.16
    15   8     0.03   0.02  -0.06    -0.16   0.20  -0.02     0.19  -0.04  -0.04
    16   8    -0.05  -0.03   0.02    -0.14  -0.06   0.12    -0.25  -0.20   0.29
    17   6    -0.01  -0.02  -0.01     0.01  -0.06   0.04    -0.09  -0.06   0.11
    18   6    -0.03  -0.01  -0.03     0.04   0.01  -0.06     0.02   0.09  -0.08
    19   6    -0.02  -0.02  -0.03     0.06  -0.01  -0.05     0.05   0.05  -0.12
    20   6    -0.04   0.01  -0.04    -0.01   0.02  -0.04     0.00   0.07  -0.08
    21   1    -0.05  -0.03  -0.05     0.04   0.01  -0.12     0.07   0.12  -0.17
    22   6    -0.02  -0.00  -0.02     0.03   0.01  -0.02     0.00   0.02  -0.11
    23   1    -0.03  -0.03  -0.02     0.09  -0.00  -0.06     0.07   0.14  -0.22
    24   6    -0.04   0.01  -0.04    -0.08  -0.03   0.03    -0.18  -0.08   0.00
    25   1    -0.04   0.00  -0.04    -0.01   0.04  -0.05     0.11   0.09  -0.11
    26   1    -0.02   0.00  -0.01     0.06   0.04  -0.00     0.07   0.07  -0.13
    27   1    -0.04   0.01  -0.03    -0.16  -0.06   0.09    -0.31  -0.18   0.10
                     13                     14                     15
                      A                      A                      A
 Frequencies --    422.0196               425.3387               466.8812
 Red. masses --      3.0278                 3.0188                 5.6534
 Frc consts  --      0.3177                 0.3218                 0.7261
 IR Inten    --      0.0379                 1.1429               126.4979
  Atom  AN      X      Y      Z        X      Y      Z        X      Y      Z
     1   6    -0.00   0.01   0.21     0.01  -0.00   0.00     0.08  -0.05   0.01
     2   6    -0.00  -0.01  -0.21     0.00   0.00  -0.00     0.05  -0.03  -0.01
     3   6     0.00   0.00   0.00    -0.00   0.00  -0.00    -0.07   0.02   0.00
     4   6    -0.00   0.01   0.22     0.00   0.01   0.00     0.05   0.07   0.00
     5   6    -0.00  -0.01  -0.21     0.00   0.00  -0.00     0.06   0.04  -0.01
     6   6    -0.00  -0.00  -0.00     0.01  -0.00  -0.00     0.14  -0.01  -0.00
     7   1     0.00   0.02   0.46     0.01  -0.00   0.01     0.04  -0.02   0.02
     8   1    -0.01  -0.02  -0.45     0.01   0.00  -0.01     0.13   0.01  -0.02
     9   1    -0.00   0.02   0.44     0.00   0.01   0.01     0.11   0.03   0.00
    10   1    -0.00  -0.02  -0.46    -0.00  -0.00  -0.01    -0.00  -0.00  -0.02
    11   1    -0.00  -0.00  -0.01     0.01  -0.00  -0.00     0.14  -0.02  -0.00
    12   7     0.00   0.00  -0.01    -0.00  -0.01  -0.00    -0.12  -0.05  -0.01
    13   6     0.00   0.00   0.01    -0.01  -0.01  -0.00    -0.18  -0.05  -0.06
    14   1     0.01  -0.00  -0.02    -0.01  -0.00   0.02    -0.30   0.07   0.39
    15   8    -0.00  -0.00  -0.00     0.00  -0.00   0.00     0.01   0.00   0.05
    16   8     0.00  -0.01  -0.00    -0.01   0.01   0.00    -0.11   0.34   0.10
    17   6    -0.00   0.00   0.00    -0.01  -0.01   0.00     0.08  -0.12  -0.11
    18   6    -0.00   0.00   0.00     0.15   0.10  -0.12     0.03  -0.18  -0.07
    19   6     0.00   0.00  -0.00    -0.15  -0.11   0.11     0.08  -0.15  -0.03
    20   6     0.00   0.00  -0.00    -0.14  -0.10   0.11    -0.06   0.01  -0.04
    21   1    -0.01   0.00   0.01     0.31   0.22  -0.25    -0.05  -0.27  -0.16
    22   6    -0.00  -0.00   0.00     0.15   0.11  -0.12     0.00   0.01   0.08
    23   1     0.00   0.01  -0.00    -0.29  -0.22   0.24     0.19  -0.26   0.09
    24   6     0.00  -0.00  -0.00    -0.00  -0.00   0.00     0.01   0.09   0.01
    25   1     0.01   0.00  -0.00    -0.31  -0.22   0.24    -0.19   0.05  -0.10
    26   1    -0.01  -0.01   0.00     0.32   0.23  -0.25    -0.00   0.03   0.22
    27   1     0.00  -0.00  -0.00    -0.01  -0.00   0.01     0.01   0.15   0.01
                     16                     17                     18
                      A                      A                      A
 Frequencies --    521.4611               541.0422               547.7653
 Red. masses --      3.2795                 4.7367                 4.0835
 Frc consts  --      0.5254                 0.8169                 0.7219
 IR Inten    --      9.9087                 1.9216                23.2102
  Atom  AN      X      Y      Z        X      Y      Z        X      Y      Z
     1   6     0.01  -0.02  -0.12    -0.03   0.04  -0.08    -0.04   0.04   0.04
     2   6     0.01  -0.01   0.00    -0.01   0.05   0.02    -0.02   0.04  -0.02
     3   6    -0.02   0.01   0.26     0.07   0.01   0.18     0.07  -0.01  -0.09
     4   6     0.01   0.01   0.01    -0.02  -0.04   0.02    -0.01  -0.05  -0.01
     5   6     0.01   0.00  -0.12    -0.03  -0.04  -0.08    -0.02  -0.04   0.04
     6   6     0.03   0.01   0.17    -0.09   0.01   0.12    -0.09  -0.00  -0.06
     7   1    -0.00  -0.02  -0.42     0.02  -0.01  -0.33     0.01   0.01   0.17
     8   1     0.02  -0.02  -0.29    -0.08   0.00  -0.21    -0.08   0.01   0.10
     9   1     0.02  -0.01  -0.30    -0.08  -0.01  -0.22    -0.07  -0.00   0.11
    10   1    -0.00  -0.02  -0.43     0.02  -0.03  -0.32     0.03  -0.01   0.16
    11   1     0.03   0.01   0.21    -0.09   0.00   0.12    -0.09   0.01  -0.06
    12   7    -0.03  -0.00  -0.06     0.10  -0.00  -0.12     0.10   0.01   0.07
    13   6    -0.03  -0.00  -0.11     0.10  -0.01   0.03     0.05  -0.03  -0.07
    14   1    -0.03  -0.01  -0.04     0.09   0.03   0.18     0.01   0.02   0.15
    15   8     0.01   0.01   0.04    -0.05  -0.04  -0.01    -0.06  -0.04   0.04
    16   8    -0.01   0.01  -0.07     0.07   0.04   0.22     0.15   0.17   0.04
    17   6    -0.13  -0.07   0.05     0.20   0.05   0.03    -0.10  -0.14   0.18
    18   6     0.01  -0.02   0.01    -0.02   0.06  -0.01    -0.04  -0.01   0.01
    19   6    -0.00   0.03   0.02     0.03  -0.09  -0.07    -0.00  -0.09  -0.03
    20   6     0.07   0.01  -0.03    -0.12   0.05   0.02     0.02   0.10  -0.08
    21   1     0.15   0.09  -0.05    -0.21  -0.10  -0.05     0.14   0.10  -0.27
    22   6     0.05   0.05  -0.01    -0.06  -0.09  -0.04     0.06   0.02  -0.09
    23   1     0.15   0.10  -0.06    -0.20  -0.13  -0.03     0.19   0.09  -0.23
    24   6    -0.03  -0.05   0.10    -0.06   0.06  -0.20    -0.18  -0.06  -0.00
    25   1     0.18   0.12  -0.14    -0.19  -0.09   0.18     0.28   0.25  -0.24
    26   1     0.16   0.12  -0.14    -0.14  -0.12   0.18     0.33   0.22  -0.19
    27   1    -0.04  -0.06   0.11    -0.05   0.05  -0.20    -0.17  -0.05  -0.01
                     19                     20                     21
                      A                      A                      A
 Frequencies --    634.0099               636.6559               659.2546
 Red. masses --      6.5031                 6.4376                 7.5206
 Frc consts  --      1.5402                 1.5374                 1.9258
 IR Inten    --     26.2712                 2.3854               103.1361
  Atom  AN      X      Y      Z        X      Y      Z        X      Y      Z
     1   6     0.03   0.06  -0.00     0.26   0.24  -0.01    -0.01  -0.06  -0.02
     2   6     0.03   0.01  -0.00     0.24  -0.20   0.01    -0.01  -0.08   0.04
     3   6     0.05  -0.01  -0.00    -0.01  -0.14   0.01    -0.10  -0.01   0.01
     4   6    -0.03  -0.05   0.00    -0.24  -0.20   0.01    -0.01   0.04   0.02
     5   6    -0.03  -0.00   0.00    -0.26   0.25  -0.01    -0.00   0.06  -0.02
     6   6    -0.05   0.02  -0.00     0.00   0.14  -0.01     0.09   0.01   0.03
     7   1     0.06   0.04   0.00     0.12   0.32  -0.01    -0.10  -0.01  -0.12
     8   1    -0.01  -0.01   0.00     0.10  -0.28   0.02     0.03  -0.06  -0.05
     9   1    -0.05  -0.03   0.01    -0.10  -0.28   0.02     0.06  -0.01  -0.03
    10   1     0.02   0.03   0.00    -0.12   0.32  -0.01    -0.06   0.02  -0.07
    11   1    -0.05  -0.04   0.00     0.00  -0.29   0.01     0.09   0.01  -0.01
    12   7     0.04  -0.00   0.01    -0.00  -0.01   0.01    -0.05   0.02  -0.21
    13   6     0.05  -0.00  -0.01    -0.01  -0.03  -0.01    -0.11   0.01   0.60
    14   1     0.09   0.01  -0.05    -0.03  -0.01   0.02    -0.16  -0.03  -0.35
    15   8    -0.01  -0.02   0.00     0.01  -0.03   0.01     0.04   0.02  -0.19
    16   8    -0.05  -0.07  -0.04     0.01   0.02   0.01     0.16   0.06  -0.06
    17   6     0.02  -0.11  -0.07    -0.00   0.01   0.01     0.01  -0.03   0.02
    18   6     0.23  -0.18   0.12    -0.03   0.02  -0.01    -0.02  -0.06   0.05
    19   6    -0.09  -0.13  -0.23     0.01   0.01   0.03    -0.04  -0.09   0.00
    20   6     0.09   0.18   0.27    -0.01  -0.02  -0.03     0.02   0.06   0.00
    21   1     0.17  -0.24   0.06    -0.02   0.03  -0.01     0.09   0.01  -0.13
    22   6    -0.26   0.24  -0.12     0.03  -0.03   0.01     0.02   0.02  -0.05
    23   1     0.02  -0.23  -0.11     0.00   0.03   0.01     0.10   0.02  -0.12
    24   6    -0.02   0.11   0.09     0.00  -0.01  -0.01    -0.09  -0.02   0.01
    25   1    -0.06   0.25   0.19     0.01  -0.03  -0.02     0.20   0.19  -0.13
    26   1    -0.23   0.27  -0.03     0.03  -0.03   0.00     0.22   0.17  -0.13
    27   1     0.12  -0.27  -0.03    -0.01   0.03   0.00     0.02   0.01  -0.08
                     22                     23                     24
                      A                      A                      A
 Frequencies --    683.9467               711.3424               714.8714
 Red. masses --      6.9944                 2.1337                 2.0609
 Frc consts  --      1.9277                 0.6361                 0.6205
 IR Inten    --     77.8451                13.4804                18.3555
  Atom  AN      X      Y      Z        X      Y      Z        X      Y      Z
     1   6    -0.03  -0.17   0.01    -0.00  -0.02   0.00    -0.00  -0.01  -0.16
     2   6    -0.05  -0.17  -0.00    -0.01  -0.02  -0.00     0.00   0.00   0.09
     3   6    -0.23  -0.00   0.00    -0.03   0.00   0.00    -0.00  -0.01  -0.13
     4   6    -0.04   0.15  -0.01    -0.01   0.03  -0.00     0.00   0.00   0.09
     5   6    -0.03   0.17  -0.00    -0.01   0.02   0.00    -0.00  -0.01  -0.16
     6   6     0.22   0.00  -0.01     0.03  -0.00  -0.00    -0.00   0.01   0.11
     7   1    -0.25  -0.04   0.05    -0.03  -0.01   0.00     0.00   0.00   0.08
     8   1     0.12  -0.08   0.03     0.02  -0.00  -0.01     0.00   0.03   0.52
     9   1     0.13   0.05   0.02     0.01   0.01  -0.01     0.00   0.03   0.54
    10   1    -0.23   0.05   0.03    -0.04   0.01  -0.00     0.00   0.00   0.09
    11   1     0.22   0.01   0.01     0.03  -0.00  -0.01     0.00   0.03   0.57
    12   7    -0.11  -0.00   0.09    -0.01  -0.01   0.01     0.00  -0.00   0.01
    13   6    -0.07   0.02  -0.22     0.02   0.01  -0.04     0.00  -0.00  -0.01
    14   1    -0.11  -0.13  -0.03     0.01  -0.01   0.00     0.00   0.00  -0.01
    15   8     0.04   0.06   0.06    -0.01  -0.00   0.01    -0.00  -0.00   0.00
    16   8     0.22  -0.13  -0.03     0.01  -0.01  -0.00    -0.00   0.00   0.00
    17   6     0.08  -0.02   0.14     0.10   0.07  -0.06     0.00   0.00  -0.00
    18   6     0.04   0.12   0.08    -0.06  -0.03   0.06    -0.00  -0.00   0.00
    19   6     0.06  -0.08  -0.07    -0.06  -0.05   0.05    -0.00  -0.00   0.00
    20   6    -0.05   0.12   0.16     0.11   0.09  -0.08     0.00   0.00  -0.00
    21   1     0.07   0.12  -0.13    -0.38  -0.25   0.30    -0.01  -0.00   0.00
    22   6    -0.05  -0.10  -0.04     0.11   0.06  -0.09     0.00   0.00  -0.00
    23   1     0.02   0.06  -0.23    -0.37  -0.26   0.27    -0.01  -0.00   0.01
    24   6    -0.07   0.04  -0.16    -0.09  -0.05   0.04    -0.00  -0.00   0.00
    25   1     0.10   0.06   0.24    -0.04  -0.04   0.07    -0.00  -0.00   0.00
[...]
 ,-0.00011504,0.00239547,-0.00331833,-0.00665429,-0.03073924,0.03535331
 ,-0.00701362,0.00644344,-0.11544320,-0.04332505,0.02404771,-0.01838854
 ,0.01869482,-0.18673561,0.60193993,-0.00000461,-0.00000170,0.00000351,
 0.00003254,0.00000456,0.00001031,-0.00022746,-0.00003230,-0.00005245,0
 .00002086,-0.00004544,0.00002214,-0.00002499,0.00002022,0.00000338,0.0
 0001387,0.00000778,-0.00000117,0.00000639,0.00000551,-0.00000192,0.000
 00325,-0.00000500,-0.00000973,-0.00001726,0.00003093,-0.00002164,0.000
 00444,-0.00000570,-0.00000063,0.00000928,0.00000273,-0.00000072,-0.000
 35025,0.00068431,0.00038584,0.00027949,-0.00154101,-0.00099627,-0.0002
 9762,-0.00002372,-0.00067198,-0.00020826,0.00067213,0.00015801,-0.0023
 0562,-0.00184496,0.00465597,0.00260114,-0.04990622,-0.04092290,-0.1554
 7219,0.00668591,-0.24792123,-0.02669136,0.01806926,-0.02234814,0.20727
 763,0.18169931,0.55880242,-0.00000612,-0.00001021,0.00000308,-0.000016
 94,0.00001259,0.00000715,-0.00008732,-0.00011495,-0.00003977,0.0000134
 3,-0.00002248,0.00002496,-0.00000956,0.00001843,0.00000627,0.00000952,
 -0.00000123,-0.00000141,-0.00000050,0.00000271,-0.00000122,-0.00000309
 ,-0.00000145,-0.00000480,-0.00000068,0.00002487,-0.00002635,0.00000332
 ,-0.00000302,-0.00000217,0.00000453,0.00000193,-0.00000073,-0.00051148
 ,0.00026953,0.00007422,0.00050009,-0.00004433,-0.00019343,0.00006044,0
 .00017836,-0.00017330,-0.00012018,-0.00015035,0.00005007,-0.00072757,-
 0.00208043,0.00242072,0.00208984,-0.00009463,-0.00236488,-0.16469350,0
 .14700442,-0.03270012,0.00328287,0.00125361,-0.00164199,-0.00871147,0.
 01534082,0.00030650,0.16925135,-0.00001381,-0.00000156,-0.00000199,0.0
 0006437,0.00000006,0.00000164,-0.00035919,-0.00002182,-0.00001900,0.00
 004403,-0.00004695,0.00002610,-0.00003069,0.00002254,0.00000690,0.0000
 2644,0.00000356,-0.00000167,0.00001074,0.00000770,-0.00000093,-0.00000
 887,-0.00000824,-0.00000304,-0.00002224,0.00004468,-0.00002969,0.00001
 011,-0.00000748,-0.00000174,0.00001151,0.00000229,-0.00000044,-0.00049
 776,0.00060800,0.00052726,0.00071408,-0.00091132,-0.00020348,-0.000274
 65,-0.00093122,-0.00151307,-0.00026650,0.00048897,-0.00006972,-0.00210
 667,0.00124694,0.00207482,0.01800946,-0.01332909,0.00730011,0.14698202
 ,-0.21811403,0.01883454,0.00062332,-0.00107791,-0.00516652,-0.00200791
 ,0.00400691,-0.00071910,-0.16067042,0.22620259,0.00000110,0.00000559,-
 0.00000351,0.00006092,0.00001203,-0.00000832,-0.00014431,0.00005551,0.
 00002694,0.00004073,-0.00004005,-0.00002415,-0.00000362,0.00000978,-0.
 00000962,0.00002386,0.00000180,-0.00000413,0.00000762,0.00000337,0.000
 00213,-0.00000946,-0.00000254,0.00000656,-0.00002354,0.00001282,0.0000
 2603,0.00000806,-0.00000460,0.00000653,0.00000542,0.00000175,0.0000032
 3,0.00052787,-0.00021688,-0.00013512,-0.00093769,-0.00048804,0.0003183
 0,-0.00083373,-0.00051162,-0.00026838,0.00018088,0.00054381,-0.0000888
 9,0.00352723,0.00232168,0.00091295,0.01277610,-0.01660510,0.00553234,-
 0.03291514,0.02042272,-0.05744315,-0.00202735,-0.00448515,-0.00123408,
 -0.01516818,0.02067646,0.00189202,0.03816629,-0.02038682,0.05361670,-0
 .00000856,-0.00000584,-0.00000356,0.00008509,0.00001236,-0.00001088,-0
 .00015449,0.00010458,0.00004598,0.00006049,0.00002558,-0.00001092,-0.0
 0000837,-0.00000854,-0.00000468,0.00002359,0.00000131,-0.00000085,0.00
 000960,0.00000433,0.00000157,-0.00001819,-0.00001549,0.00000667,-0.000
 00569,-0.00000658,0.00001205,0.00000944,-0.00000466,0.00000246,0.00000
 560,-0.00000212,0.00000142,0.00128828,-0.00100473,-0.00002690,-0.00142
 065,0.00025683,0.00022050,0.00038370,0.00065279,-0.00043040,0.00048771
 ,-0.00042808,-0.00004860,0.00369354,0.00398522,-0.00079680,-0.03184426
 ,0.03504658,-0.01121843,-0.01234463,-0.01178493,-0.01950306,-0.1873147
 0,0.00556040,-0.15584535,0.02352056,0.00661634,0.02550436,-0.00009191,
 -0.00086943,-0.00027224,0.46337296,0.00000918,0.00005484,-0.00000250,0
 .00011643,-0.00005909,-0.00000406,0.00005147,0.00040299,-0.00000897,-0
 .00004288,-0.00000635,-0.00000152,0.00000353,-0.00000077,-0.00000212,-
 0.00000980,-0.00000330,-0.00000053,0.00001144,-0.00000105,0.00000100,0
 .00001217,0.00001473,0.00000454,-0.00000467,0.00000228,0.00000086,-0.0
 0000098,0.00000179,0.00000050,-0.00000161,0.00000116,0.00000071,0.0015
 1789,0.00046256,-0.00016868,0.00045026,-0.00121267,0.00019068,-0.00184
 383,0.00041848,0.00077461,-0.00050309,0.00055881,-0.00008649,0.0080987
 5,-0.00548398,-0.00200294,0.00037184,0.03536262,0.03096645,-0.01308583
 ,-0.01786594,-0.02713631,0.04529841,-0.11772819,0.00491752,0.03750011,
 -0.04368421,0.00067586,-0.00068794,0.00003531,-0.00032881,-0.21884565,
 0.60196509,-0.00001482,-0.00000374,-0.00001134,0.00009191,0.00000376,-
 0.00000450,-0.00034541,0.00013918,0.00021441,0.00007730,0.00001469,-0.
 00001110,-0.00000931,-0.00000659,-0.00001717,0.00003165,-0.00000190,0.
 00000127,0.00001050,0.00000517,-0.00000033,-0.00002558,-0.00001399,0.0
 0000637,-0.00000679,-0.00000281,0.00001628,0.00001242,-0.00000674,0.00
 000200,0.00000743,-0.00000181,0.00000221,0.00104820,-0.00038290,-0.000
 16380,-0.00128738,0.00056556,-0.00056599,-0.00060916,-0.00013513,0.000
 83296,-0.00011078,-0.00086613,0.00010564,0.00286234,-0.00547256,0.0026
 8407,-0.04148943,0.07288434,0.01768236,-0.02064490,-0.02625328,-0.0551
 7604,-0.11990575,-0.04447393,-0.25296189,0.05397490,-0.03829026,0.0405
 8766,-0.00011332,-0.00058056,-0.00110201,0.21320127,0.14066612,0.53420
 511,-0.00001763,-0.00003590,-0.00000410,0.00006317,0.00004371,-0.00000
 183,-0.00040799,0.00004099,0.00003773,0.00009095,-0.00000285,-0.000003
 98,-0.00001659,0.00000489,-0.00000447,0.00004489,0.00000221,0.00000025
 ,0.00000794,0.00000821,-0.00000068,-0.00004218,-0.00002928,0.00000662,
 -0.00000834,0.00000242,0.00000504,0.00001218,-0.00000982,0.00000091,0.
 00001113,-0.00000272,0.00000118,0.00009462,-0.00066848,-0.00005704,-0.
 00053985,0.00319518,-0.00015715,-0.00015480,-0.00018356,0.00012004,0.0
 0035815,-0.00187741,0.00011157,-0.00085189,-0.00279583,0.00166501,0.00
 512259,0.01596426,0.01481757,-0.00029740,0.00441715,-0.00307377,-0.048
 69425,0.00887445,-0.00907805,-0.00089505,0.00015745,-0.00036506,0.0001
 3288,0.00089850,0.00069582,0.00433239,-0.01635825,-0.01246192,0.042410
 35,0.00000601,0.00000448,0.00000103,-0.00006771,-0.00001175,0.00000776
 ,0.00014278,-0.00006474,-0.00001226,-0.00004060,-0.00000703,0.00000906
 ,0.00000626,0.00000244,0.00000173,-0.00001822,-0.00000160,0.00000153,-
 0.00000776,-0.00000344,-0.00000139,0.00001318,0.00001654,-0.00000593,0
 .00000385,0.00000013,-0.00000886,-0.00000599,0.00000300,-0.00000206,-0
 .00000384,0.00000115,-0.00000098,-0.00065929,-0.00006060,0.00006607,0.
 00082085,-0.00024606,-0.00017314,0.00070956,-0.00015729,0.00004123,-0.
 00068316,-0.00008417,-0.00002099,-0.00293480,0.00118445,0.00116458,-0.
 00206080,-0.01339328,-0.01864517,0.00495523,-0.00116987,0.00025978,0.0
 1086598,-0.21687225,-0.15073414,0.00037724,-0.00003101,0.00097172,-0.0
 0001303,-0.00071883,-0.00084474,-0.00002408,0.00515372,0.00277821,-0.0
 1189996,0.22400692,0.00000379,0.00001494,-0.00000226,0.00002264,-0.000
 01877,-0.00000568,0.00002582,0.00003128,-0.00003948,-0.00000117,0.0000
 0131,-0.00000529,-0.00000103,-0.00000195,0.00000240,-0.00000378,0.0000
 0209,-0.00000156,0.00000417,-0.00000002,0.00000216,0.00001002,0.000006
 21,0.00000816,-0.00000102,0.00000270,0.00000172,-0.00000029,0.00000134
 ,0.00000080,-0.00000081,0.00000092,0.00000072,0.00050950,0.00026953,-0
 .00001821,-0.00046783,-0.00156632,0.00048540,-0.00035439,0.00009808,-0
 .00002921,-0.00029867,0.00098670,-0.00033452,0.00297152,0.00085073,-0.
 00040771,-0.00215898,0.00391851,0.00558184,-0.00257009,-0.00019421,0.0
 0220860,-0.00779938,-0.15159354,-0.18286045,-0.00026946,0.00084250,-0.
 00023010,-0.00012161,0.00021685,0.00039098,0.00268125,-0.01863944,-0.0
 1063573,0.01135507,0.16457007,0.18779367,0.00000745,0.00000670,-0.0000
 0441,-0.00007001,-0.00002076,0.00000151,0.00027033,0.00006525,0.000066
 89,-0.00008254,0.00000065,0.00000142,0.00001569,0.00000245,-0.00000436
 ,-0.00002820,-0.00000499,0.00000109,-0.00001047,-0.00000610,0.00000050
 ,0.00001639,0.00001400,-0.00000058,0.00001550,-0.00001046,0.00000416,-
 0.00001162,0.00000606,-0.00000059,-0.00000811,-0.00000003,0.00000073,-
 0.00073412,-0.00012093,-0.00002501,0.00152099,0.00200785,-0.00008718,0
 .00056281,-0.00011123,0.00023865,-0.00011172,-0.00109041,0.00012134,-0
 .00197684,-0.00239999,-0.00240471,-0.01505373,0.02651626,0.01374468,-0
 .02792639,0.00482175,-0.03963157,0.02538182,-0.02671387,-0.00145751,-0
 .19107467,0.15066868,-0.02609619,0.00192869,0.00144426,-0.00522048,-0.
 10148897,0.00557347,-0.04318645,0.00090477,0.00252437,-0.00584160,0.46
 133970,0.00000464,-0.00000876,0.00000785,-0.00004353,0.00001641,0.0000
 0540,0.00001232,-0.00013800,-0.00013114,-0.00001596,-0.00002463,0.0000
 0924,-0.00000347,0.00000687,0.00001110,-0.00000574,0.00000569,-0.00000
 133,-0.00000290,0.00000037,0.00000006,0.00000907,0.00000220,-0.0000065
 2,0.00000195,0.00000947,-0.00001315,-0.00000557,0.00000192,-0.00000182
 ,-0.00000062,0.00000094,-0.00000151,-0.00076314,0.00051971,0.00017726,
 0.00027548,-0.00075429,-0.00004599,0.00007334,-0.00009282,-0.00048444,
 0.00018881,0.00080146,0.00010268,-0.00228899,0.00261061,0.00173873,0.0
 2732744,-0.06711835,-0.02219489,0.03514479,0.03173416,0.06558582,-0.05
 607047,0.03378974,-0.04705758,0.11006328,-0.24409644,-0.02319556,0.000
 93032,0.00299479,-0.00250503,0.04550063,-0.24063396,-0.10128307,0.0027
 9387,0.00292189,-0.00052177,-0.18654958,0.55822646,0.00001045,-0.00000
 075,0.00000964,-0.00014450,-0.00001206,0.00001829,0.00042884,-0.000080
 40,-0.00008832,-0.00012486,-0.00000586,0.00001452,0.00001995,0.0000087
 6,0.00000987,-0.00004907,-0.00000453,0.00000341,-0.00001975,-0.0000089
 3,-0.00000349,0.00003041,0.00001790,-0.00001649,0.00002072,-0.00000902
 ,-0.00001229,-0.00001940,0.00000918,-0.00000466,-0.00001137,0.00000066
 ,-0.00000345,-0.00160216,0.00028557,0.00004708,0.00221405,0.00155862,0
 .00002089,0.00088163,-0.00026787,0.00000535,-0.00018707,-0.00054141,0.
 00018436,-0.00354954,0.00041635,-0.00265560,0.01342288,-0.02129127,-0.
 00873322,-0.01269952,0.02765491,0.01668590,-0.02815299,-0.00992337,-0.
 03723147,-0.06213662,0.02697050,-0.11655891,-0.00568849,-0.00194348,-0
 .00161300,-0.00704793,-0.15178044,-0.20773755,-0.00536857,-0.00077855,
 -0.00041417,0.24503642,0.14670603,0.57170097,0.00000352,0.00000110,0.0
 0000206,-0.00003071,-0.00000796,0.00000596,0.00011412,-0.00001911,-0.0
 0000554,-0.00002946,-0.00000359,0.00001307,0.00000110,0.00000416,0.000
 00334,-0.00001390,0.00000075,0.00000244,-0.00000325,-0.00000101,-0.000
 00169,0.00000720,0.00000436,-0.00000394,0.00000465,0.00000157,-0.00001
 169,-0.00000546,0.00000192,-0.00000372,-0.00000123,0.00000055,-0.00000
 175,-0.00032474,-0.00000915,0.00004906,0.00048884,0.00023651,-0.000129
 90,0.00037005,-0.00004905,0.00002335,-0.00012377,-0.00017635,0.0000058
 6,-0.00068885,-0.00086631,-0.00103903,0.00132398,0.00303069,-0.0050049
 2,0.00418250,-0.01641724,-0.01342389,-0.00100136,0.00009691,-0.0003370
 8,-0.05042307,0.01150814,-0.00590566,-0.00145704,-0.00145546,0.0020545
 3,0.00059139,0.00524235,-0.00331563,-0.00035203,-0.00035847,0.00041325
 ,0.00448028,0.01514004,0.01485715,0.04428810,0.00000237,0.00000245,0.0
 0000191,-0.00003139,-0.00000934,0.00000586,0.00011908,-0.00002106,-0.0
 0000606,-0.00002610,0.00000784,0.00000557,0.00000522,-0.00000099,0.000
 00234,-0.00001369,-0.00000165,0.00000243,-0.00000416,-0.00000306,-0.00
 000172,0.00000850,0.00000454,-0.00000384,0.00000574,-0.00000293,-0.000
 00356,-0.00000386,0.00000309,-0.00000229,-0.00000387,0.00000004,-0.000
 00160,-0.00027336,0.00000752,0.00000240,0.00035154,0.00010640,0.000029
 94,0.00025929,-0.00001642,0.00001790,-0.00010872,-0.00006317,-0.000020
 88,-0.00041051,0.00012430,-0.00014295,0.00270024,0.00296548,-0.0007539
 1,0.00096695,0.00393657,0.00210282,0.00017169,0.00008474,0.00089247,0.
 01140201,-0.21858472,-0.14746606,-0.00180716,-0.00042934,0.00106992,0.
 00569321,-0.00090434,0.00003912,-0.00036446,-0.00022133,0.00017355,-0.
 00223801,-0.01279832,-0.01722177,-0.01488240,0.22696375,0.00000938,0.0
 0000494,-0.00000039,-0.00006207,-0.00001081,0.00000018,0.00021876,-0.0
 0002499,0.00000760,-0.00006267,-0.00000852,0.00000506,0.00000970,0.000
 00262,0.00000059,-0.00002349,0.00000025,0.00000043,-0.00000691,-0.0000
 0364,0.00000022,0.00001437,0.00001094,0.00000016,0.00000975,-0.0000031
 9,-0.00000464,-0.00001076,0.00000536,-0.00000143,-0.00000556,0.0000008
 0,-0.00000020,-0.00060021,0.00001518,0.00004054,0.00080607,0.00055572,
 -0.00019394,0.00061167,-0.00008989,0.00003794,-0.00011411,-0.00031505,
 0.00006164,-0.00099480,-0.00130655,-0.00127911,-0.00569015,-0.00022793
 ,0.00057354,0.00234148,-0.01960750,-0.01176329,-0.00026874,0.00076287,
 -0.00032313,-0.00597810,-0.14736914,-0.17672485,0.00176435,0.00150145,
 -0.00064245,-0.00290368,-0.00061377,0.00279344,0.00040135,0.00017824,-
 0.00026519,-0.00074346,0.00462852,0.00653710,0.00940249,0.16066868,0.1
 8161687,0.00000400,-0.00000612,0.00000176,-0.00007035,0.00000616,0.000
 00438,0.00017364,-0.00008488,0.00000405,-0.00003749,0.00000550,-0.0000
 0014,0.00001001,-0.00000052,0.00000008,-0.00001672,-0.00000370,0.00000
 100,-0.00001101,-0.00000451,-0.00000111,0.00001148,0.00000721,-0.00000
 500,0.00000760,-0.00000752,0.00000075,-0.00000529,0.00000311,-0.000000
 38,-0.00000513,0.00000004,-0.00000052,-0.00066160,-0.00014983,0.000016
 14,0.00048353,0.00069382,-0.00004904,0.00073158,-0.00008904,-0.0000986
 6,-0.00006363,-0.00042031,0.00004299,-0.00166407,0.00091575,-0.0003834
 1,0.00296459,0.00109138,-0.00521469,-0.00016865,-0.00071148,-0.0002028
 9,-0.00841007,0.01587244,-0.00062609,0.00400275,0.00164429,-0.00214874
 ,-0.00046408,-0.00025769,0.00039130,-0.16674783,0.14627997,-0.03019001
 ,-0.00153799,-0.00181082,0.00184468,0.00362723,-0.00135198,-0.00097884
 ,0.00009647,-0.00005540,-0.00007327,0.16925667,-0.00000340,-0.00000451
 ,0.00000136,0.00002399,0.00000682,0.00000070,-0.00009285,-0.00000112,-
 0.00000623,0.00002460,-0.00000432,0.00000287,-0.00000697,0.00000226,0.
 00000090,0.00000983,0.00000205,0.00000025,0.00000343,0.00000300,-0.000
 00053,-0.00000667,-0.00000506,-0.00000130,-0.00000432,0.00000413,-0.00
 000341,0.00000300,-0.00000286,-0.00000067,0.00000401,-0.00000009,-0.00
 000048,0.00019768,0.00000046,0.00000594,-0.00030443,-0.00020313,-0.000
 00442,-0.00021220,0.00001006,-0.00000377,0.00003472,0.00009422,-0.0000
 0953,0.00028984,0.00013961,0.00016973,0.00153276,0.00309049,-0.0024154
 4,-0.00079191,0.00014772,-0.00037877,-0.00142776,0.00384841,-0.0013792
 4,0.00117214,-0.00086744,-0.00549292,-0.00024622,-0.00023971,0.0003296
 0,0.14637277,-0.22145630,0.01965057,-0.00149698,-0.00049944,0.00152980
 ,0.01603989,-0.01276283,0.00563594,0.00083563,-0.00080306,0.00023307,-
 0.16018653,0.22984579,0.00000355,-0.00000311,-0.00000276,-0.00004676,0
 .00000032,-0.00000249,0.00010451,-0.00005466,0.00001759,-0.00002632,-0
 .00000087,0.00000005,0.00000505,0.00000022,-0.00000035,-0.00001096,-0.
 00000045,-0.00000042,-0.00000557,-0.00000236,0.00000117,0.00000639,0.0
 0000533,0.00000281,0.00000509,-0.00000269,0.00000024,-0.00000453,0.000
 00264,0.00000023,-0.00000319,0.00000023,0.00000063,-0.00045073,-0.0001
 5819,0.00003079,0.00032892,0.00045571,0.00001188,0.00064538,-0.0000486
 9,-0.00023413,0.00001479,-0.00026044,0.00000074,-0.00175675,0.00133925
 ,-0.00038854,-0.00484840,-0.00291895,-0.00096614,-0.00026273,-0.000273
 64,-0.00108454,-0.01627706,0.02039543,0.00146480,-0.00250125,-0.004938
 10,-0.00074066,0.00039372,0.00031465,-0.00018049,-0.03011897,0.0195237
 6,-0.05893457,0.00212159,0.00107033,-0.00062960,0.01463266,-0.01618389
 ,0.00736026,0.00073314,-0.00088981,0.00023510,0.03574362,-0.01893775,0
 .05468908,0.00000167,0.00000064,0.00000157,-0.00003751,-0.00000496,0.0
 0000434,0.00010798,-0.00003401,0.00000396,-0.00002392,0.00001242,-0.00
 000028,0.00000833,-0.00000352,0.00000058,-0.00001251,-0.00000312,0.000
 00190,-0.00000561,-0.00000361,-0.00000160,0.00000737,0.00000447,-0.000
 00319,0.00000589,-0.00000653,0.00000112,-0.00000315,0.00000293,-0.0000
 0111,-0.00000446,-0.00000024,-0.00000111,-0.00032715,0.00002038,-0.000
 01667,0.00034518,0.00021161,-0.00007253,0.00022640,0.00000597,0.000064
 30,-0.00011375,-0.00019230,0.00002845,-0.00080762,-0.00045016,0.000170
 97,0.00017263,0.00045956,0.00087190,0.00158290,0.00547655,-0.00202006,
 0.00394165,0.00227627,-0.00176507,-0.00863341,-0.00263926,-0.01594450,
 -0.00037552,0.00000243,-0.00091199,0.00358391,0.00084726,0.00239872,0.
 00022998,0.00016322,0.00004842,-0.16149426,0.00963598,-0.14914181,-0.0
 0149733,-0.00146275,0.00194864,-0.00150566,-0.00176401,0.00157483,0.16
 462798,0.00000064,0.00000067,0.00000076,-0.00000813,-0.00000174,0.0000
 0258,0.00000209,-0.00001947,-0.00000555,-0.00000396,-0.00000691,0.0000
 0395,-0.00000169,0.00000346,0.00000107,-0.00000134,0.00000030,0.000000
 30,-0.00000076,0.00000001,-0.00000078,0.00000204,0.00000159,-0.0000024
 9,-0.00000246,0.00000375,-0.00000474,-0.00000024,-0.00000038,-0.000000
 39,0.00000055,0.00000070,-0.00000048,-0.00013785,0.00009508,0.00002810
 ,0.00013433,-0.00017328,-0.00003134,0.00002675,-0.00009674,-0.00007939
 ,-0.00009981,0.00006390,0.00000830,-0.00056670,0.00017643,0.00035054,0
 .00065877,-0.00143165,-0.00038389,0.00496025,-0.00188381,-0.00176466,0
 .00266269,-0.00186337,-0.00456294,0.01519354,0.00415717,0.02074945,0.0
 0091028,0.00017315,0.00095254,-0.01683280,0.00460577,-0.01897134,-0.00
 067779,0.00024796,-0.00098114,0.00957474,-0.05521431,-0.00539469,-0.00
 185860,-0.00034701,0.00101235,-0.00137934,-0.00034516,0.00156573,-0.01
 255521,0.05185389,0.00000507,0.00000580,-0.00000039,-0.00002893,-0.000
 00724,-0.00000065,0.00013224,-0.00000871,0.00000123,-0.00002935,0.0000
 0579,-0.00000245,0.00000866,-0.00000356,-0.00000044,-0.00001282,-0.000
 00201,-0.00000002,-0.00000415,-0.00000354,0.00000042,0.00000963,0.0000
 0667,0.00000037,0.00000600,-0.00000557,0.00000320,-0.00000413,0.000003
 69,0.00000025,-0.00000493,0.00000011,0.00000024,-0.00017897,-0.0000289
 7,-0.00001066,0.00020718,0.00000521,0.00004797,0.00025659,0.00003052,0
 .00001255,-0.00006031,0.00003707,-0.00002011,0.00005208,0.00031711,-0.
 00035394,0.00072413,-0.00043854,0.00034872,-0.00225638,-0.00113783,0.0
 0325176,-0.00135498,-0.00517774,0.00064731,-0.00028058,-0.00133247,0.0
 0068205,-0.00014374,-0.00016308,0.00002260,-0.01343426,0.00305398,-0.0
 1181175,-0.00076313,0.00010686,-0.00059728,-0.14914593,-0.00534499,-0.
 22752498,0.00161876,0.00149956,-0.00071177,0.00192205,0.00107371,-0.00
 065067,0.16276021,0.00750816,0.23666646\\0.00000331,0.00000382,-0.0000
 0191,-0.00000783,-0.00000129,0.00000130,0.00000468,0.00000540,0.000004
 06,-0.00001042,0.00000208,0.00000252,0.00000995,-0.00000500,-0.0000008
 1,-0.00000118,0.00000548,0.00000480,-0.00000142,0.00000006,-0.00000099
 ,0.00000106,-0.00000064,-0.00000162,0.00000159,0.00000233,0.00000270,-
 0.00000115,0.00000458,0.00000442,-0.00000043,0.00000127,0.00000161,0.0
 0000279,0.00000647,0.00000681,0.00001139,0.00001757,-0.00004160,-0.000
 00935,-0.00000416,0.00000877,-0.00000236,-0.00001139,0.00001867,-0.000
 00633,0.00000354,0.00000124,0.00000865,-0.00000986,0.,-0.00000842,0.00
 000333,-0.00000628,-0.00000604,-0.00000304,-0.00000189,0.00000404,-0.0
 0000215,0.00001057,0.00000414,-0.00000356,0.00000223,-0.00000174,-0.00
 000136,-0.00000176,0.00000124,0.00000351,-0.00000226,-0.00000267,-0.00
 000343,-0.00000939,0.00000127,-0.00000601,-0.00000060,0.00000115,-0.00
 000324,-0.00000318,0.00000409,-0.00000433,0.00000260\\\@
 The archive entry for this job was punched.


 THERE IS NO SUBJECT, HOWEVER COMPLEX,
 WHICH, IF STUDIED WITH PATIENCE AND INTELLIGIENCE
 WILL NOT BECOME
 MORE COMPLEX
                        QUOTED BY D. GORDON ROHMAN
 Job cpu time:       0 days  0 hours 41 minutes 32.9 seconds.
 Elapsed time:       0 days  0 hours  1 minutes 44.5 seconds.
 File lengths (MBytes):  RWF=    223 Int=      0 D2E=      0 Chk=     32 Scr=      1
 Normal termination of Gaussian 16 at Tue May 28 17:08:53 2024.
