 Entering Gaussian System, Link 0=g16
 Initial command:
 /software/gaussian/g16-c01/avx2/g16/l1.exe "/local_scratch/24931455/Gau-23700.inp" -scrdir="/local_scratch/24931455/"
 Entering Link 1 = /software/gaussian/g16-c01/avx2/g16/l1.exe PID=     23708.
  
 Copyright (c) 1988-2019, Gaussian, Inc.  All Rights Reserved.
  
 This is part of the Gaussian(R) 16 program.  It is based on
 the Gaussian(R) 09 system (copyright 2009, Gaussian, Inc.),
 the Gaussian(R) 03 system (copyright 2003, Gaussian, Inc.),
 the Gaussian(R) 98 system (copyright 1998, Gaussian, Inc.),
 the Gaussian(R) 94 system (copyright 1995, Gaussian, Inc.),
 the Gaussian 92(TM) system (copyright 1992, Gaussian, Inc.),
 the Gaussian 90(TM) system (copyright 1990, Gaussian, Inc.),
 the Gaussian 88(TM) system (copyright 1988, Gaussian, Inc.),
 the Gaussian 86(TM) system (copyright 1986, Carnegie Mellon
 University), and the Gaussian 82(TM) system (copyright 1983,
 Carnegie Mellon University). Gaussian is a federally registered
 trademark of Gaussian, Inc.
  
 This software contains proprietary and confidential information,
 including trade secrets, belonging to Gaussian, Inc.
  
 This software is provided under written license and may be
 used, copied, transmitted, or stored only in accord with that
 written license.
  
 The following legend is applicable only to US Government
 contracts under FAR:
  
                    RESTRICTED RIGHTS LEGEND
  
 Use, reproduction and disclosure by the US Government is
 subject to restrictions as set forth in subparagraphs (a)
 and (c) of the Commercial Computer Software - Restricted
 Rights clause in FAR 52.227-19.
  
 Gaussian, Inc.
 340 Quinnipiac St., Bldg. 40, Wallingford CT 06492
  
  
 ---------------------------------------------------------------
 Warning -- This program may not be used in any manner that
 competes with the business of Gaussian, Inc. or will provide
 assistance to any competitor of Gaussian, Inc.  The licensee
 of this program is prohibited from giving any competitor of
 Gaussian, Inc. access to this program.  By using this program,
 the user acknowledges that Gaussian, Inc. is engaged in the
 business of creating and licensing software in the field of
 computational chemistry and represents and warrants to the
 licensee that it is not a competitor of Gaussian, Inc. and that
 it will not use this program in any manner prohibited above.
 ---------------------------------------------------------------
  

 Cite this work as:
 Gaussian 16, Revision C.01,
 M. J. Frisch, G. W. Trucks, H. B. Schlegel, G. E. Scuseria, 
 M. A. Robb, J. R. Cheeseman, G. Scalmani, V. Barone, 
 G. A. Petersson, H. Nakatsuji, X. Li, M. Caricato, A. V. Marenich, 
 J. Bloino, B. G. Janesko, R. Gomperts, B. Mennucci, H. P. Hratchian, 
 J. V. Ortiz, A. F. Izmaylov, J. L. Sonnenberg, D. Williams-Young, 
 F. Ding, F. Lipparini, F. Egidi, J. Goings, B. Peng, A. Petrone, 
 T. Henderson, D. Ranasinghe, V. G. Zakrzewski, J. Gao, N. Rega, 
 G. Zheng, W. Liang, M. Hada, M. Ehara, K. Toyota, R. Fukuda, 
 J. Hasegawa, M. Ishida, T. Nakajima, Y. Honda, O. Kitao, H. Nakai, 
 T. Vreven, K. Throssell, J. A. Montgomery, Jr., J. E. Peralta, 
 F. Ogliaro, M. J. Bearpark, J. J. Heyd, E. N. Brothers, K. N. Kudin, 
 V. N. Staroverov, T. A. Keith, R. Kobayashi, J. Normand, 
 K. Raghavachari, A. P. Rendell, J. C. Burant, S. S. Iyengar, 
 J. Tomasi, M. Cossi, J. M. Millam, M. Klene, C. Adamo, R. Cammi, 
 J. W. Ochterski, R. L. Martin, K. Morokuma, O. Farkas, 
 J. B. Foresman, and D. J. Fox, Gaussian, Inc., Wallingford CT, 2019.
 
 ******************************************
 Gaussian 16:  ES64L-G16RevC.01  3-Jul-2019
                28-May-2024 
 ******************************************
 %chk=geometry.chk
 %mem=4GB
 %nprocshared=4
 Will use up to    4 processors via shared memory.
 ---------------------------
 #P OPT wB97XD/6-31G* NoSymm
 ---------------------------
 1/18=20,19=15,26=3,38=1/1,3;
 2/9=110,12=2,15=1,17=6,18=5,40=1/2;
 3/5=1,6=6,7=1,11=2,25=1,30=1,71=1,74=-58/1,2,3;
 4//1;
 5/5=2,38=5/2;
 6/7=2,8=2,9=2,10=2,28=1/1;
 7/30=1/1,2,3,16;
 1/18=20,19=15,26=3/3(2);
 2/9=110,15=1/2;
 99//99;
 2/9=110,15=1/2;
 3/5=1,6=6,7=1,11=2,25=1,30=1,71=1,74=-58/1,2,3;
 4/5=5,16=3,69=1/1;
 5/5=2,38=5/2;
 7/30=1/1,2,3,16;
 1/18=20,19=15,26=3/3(-5);
 2/9=110,15=1/2;
 6/7=2,8=2,9=2,10=2,19=2,28=1/1;
 99/9=1/99;
 Leave Link    1 at Tue May 28 16:28:50 2024, MaxMem=   536870912 cpu:               0.4 elap:               0.1
 (Enter /software/gaussian/g16-c01/avx2/g16/l101.exe)
 ---------------------------
 CHOL Geometry (Unoptimized)
 ---------------------------
 Symbolic Z-matrix:
 Charge =  0 Multiplicity = 1
 H                     4.03019   0.70873   0.10395 
 O                     5.11701  -0.08095   0.11492 
 C                     6.06982  -0.02912   1.17998 
 C                     6.03331   1.02552   2.10211 
 C                     7.04009  -1.03296   1.30161 
 C                     6.96707   1.07632   3.14587 
 H                     5.29249   1.79198   2.00924 
 C                     7.97385  -0.98217   2.34537 
 H                     7.06796  -1.8382    0.59755 
 C                     7.93734   0.07247   3.2675 
 H                     6.9392    1.88156   3.84993 
 H                     8.71467  -1.74863   2.43824 
 H                     8.65029   0.11126   4.06443 
 
 Add virtual bond connecting atoms O2         and H1         Dist= 2.54D+00.
 ITRead=  0  0  0  0  0  0  0  0  0  0  0  0  0
 MicOpt= -1 -1 -1 -1 -1 -1 -1 -1 -1 -1 -1 -1 -1
 NAtoms=     13 NQM=       13 NQMF=       0 NMMI=      0 NMMIF=      0
                NMic=       0 NMicF=      0.
                    Isotopes and Nuclear Properties:
 (Nuclear quadrupole moments (NQMom) in fm**2, nuclear magnetic moments (NMagM)
  in nuclear magnetons)

  Atom         1           2           3           4           5           6           7           8           9          10
 IAtWgt=           1          16          12          12          12          12           1          12           1          12
 AtmWgt=   1.0078250  15.9949146  12.0000000  12.0000000  12.0000000  12.0000000   1.0078250  12.0000000   1.0078250  12.0000000
 NucSpn=           1           0           0           0           0           0           1           0           1           0
 AtZEff=  -0.0000000  -0.0000000  -0.0000000  -0.0000000  -0.0000000  -0.0000000  -0.0000000  -0.0000000  -0.0000000  -0.0000000
 NQMom=    0.0000000   0.0000000   0.0000000   0.0000000   0.0000000   0.0000000   0.0000000   0.0000000   0.0000000   0.0000000
 NMagM=    2.7928460   0.0000000   0.0000000   0.0000000   0.0000000   0.0000000   2.7928460   0.0000000   2.7928460   0.0000000
 AtZNuc=   1.0000000   8.0000000   6.0000000   6.0000000   6.0000000   6.0000000   1.0000000   6.0000000   1.0000000   6.0000000

  Atom        11          12          13
 IAtWgt=           1           1           1
 AtmWgt=   1.0078250   1.0078250   1.0078250
 NucSpn=           1           1           1
 AtZEff=  -0.0000000  -0.0000000  -0.0000000
 NQMom=    0.0000000   0.0000000   0.0000000
 NMagM=    2.7928460   2.7928460   2.7928460
 AtZNuc=   1.0000000   1.0000000   1.0000000
 Leave Link  101 at Tue May 28 16:28:50 2024, MaxMem=   536870912 cpu:               0.8 elap:               0.2
 (Enter /software/gaussian/g16-c01/avx2/g16/l103.exe)

 GradGradGradGradGradGradGradGradGradGradGradGradGradGradGradGradGradGrad
 Berny optimization.
 Initialization pass.
                           ----------------------------
                           !    Initial Parameters    !
                           ! (Angstroms and Degrees)  !
 --------------------------                            --------------------------
 ! Name  Definition              Value          Derivative Info.                !
 --------------------------------------------------------------------------------
 ! R1    R(1,2)                  1.3435         estimate D2E/DX2                !
 ! R2    R(2,3)                  1.43           estimate D2E/DX2                !
 ! R3    R(3,4)                  1.4014         estimate D2E/DX2                !
 ! R4    R(3,5)                  1.4014         estimate D2E/DX2                !
 ! R5    R(4,6)                  1.4014         estimate D2E/DX2                !
 ! R6    R(4,7)                  1.07           estimate D2E/DX2                !
 ! R7    R(5,8)                  1.4014         estimate D2E/DX2                !
 ! R8    R(5,9)                  1.07           estimate D2E/DX2                !
 ! R9    R(6,10)                 1.4014         estimate D2E/DX2                !
 ! R10   R(6,11)                 1.07           estimate D2E/DX2                !
 ! R11   R(8,10)                 1.4014         estimate D2E/DX2                !
 ! R12   R(8,12)                 1.07           estimate D2E/DX2                !
 ! R13   R(10,13)                1.07           estimate D2E/DX2                !
 ! A1    A(1,2,3)              121.5871         estimate D2E/DX2                !
 ! A2    A(2,3,4)              120.0            estimate D2E/DX2                !
 ! A3    A(2,3,5)              120.0            estimate D2E/DX2                !
 ! A4    A(4,3,5)              120.0            estimate D2E/DX2                !
 ! A5    A(3,4,6)              120.0            estimate D2E/DX2                !
 ! A6    A(3,4,7)              120.0            estimate D2E/DX2                !
 ! A7    A(6,4,7)              120.0            estimate D2E/DX2                !
 ! A8    A(3,5,8)              120.0            estimate D2E/DX2                !
 ! A9    A(3,5,9)              120.0            estimate D2E/DX2                !
 ! A10   A(8,5,9)              120.0            estimate D2E/DX2                !
 ! A11   A(4,6,10)             120.0            estimate D2E/DX2                !
 ! A12   A(4,6,11)             120.0            estimate D2E/DX2                !
 ! A13   A(10,6,11)            120.0            estimate D2E/DX2                !
 ! A14   A(5,8,10)             120.0            estimate D2E/DX2                !
 ! A15   A(5,8,12)             120.0            estimate D2E/DX2                !
 ! A16   A(10,8,12)            120.0            estimate D2E/DX2                !
 ! A17   A(6,10,8)             120.0            estimate D2E/DX2                !
 ! A18   A(6,10,13)            120.0            estimate D2E/DX2                !
 ! A19   A(8,10,13)            120.0            estimate D2E/DX2                !
 ! D1    D(1,2,3,4)            -12.5996         estimate D2E/DX2                !
 ! D2    D(1,2,3,5)            167.4004         estimate D2E/DX2                !
 ! D3    D(2,3,4,6)           -179.9999         estimate D2E/DX2                !
 ! D4    D(2,3,4,7)              0.0            estimate D2E/DX2                !
 ! D5    D(5,3,4,6)              0.0001         estimate D2E/DX2                !
 ! D6    D(5,3,4,7)            180.0            estimate D2E/DX2                !
 ! D7    D(2,3,5,8)            179.9999         estimate D2E/DX2                !
 ! D8    D(2,3,5,9)              0.0            estimate D2E/DX2                !
 ! D9    D(4,3,5,8)             -0.0001         estimate D2E/DX2                !
 ! D10   D(4,3,5,9)            180.0            estimate D2E/DX2                !
 ! D11   D(3,4,6,10)             0.0001         estimate D2E/DX2                !
 ! D12   D(3,4,6,11)           179.9999         estimate D2E/DX2                !
 ! D13   D(7,4,6,10)          -179.9998         estimate D2E/DX2                !
 ! D14   D(7,4,6,11)             0.0            estimate D2E/DX2                !
 ! D15   D(3,5,8,10)             0.0            estimate D2E/DX2                !
 ! D16   D(3,5,8,12)           179.9999         estimate D2E/DX2                !
 ! D17   D(9,5,8,10)           179.9999         estimate D2E/DX2                !
 ! D18   D(9,5,8,12)            -0.0002         estimate D2E/DX2                !
 ! D19   D(4,6,10,8)            -0.0002         estimate D2E/DX2                !
 ! D20   D(4,6,10,13)          180.0            estimate D2E/DX2                !
 ! D21   D(11,6,10,8)          180.0            estimate D2E/DX2                !
 ! D22   D(11,6,10,13)           0.0002         estimate D2E/DX2                !
 ! D23   D(5,8,10,6)             0.0002         estimate D2E/DX2                !
 ! D24   D(5,8,10,13)          180.0            estimate D2E/DX2                !
 ! D25   D(12,8,10,6)         -179.9997         estimate D2E/DX2                !
 ! D26   D(12,8,10,13)           0.0001         estimate D2E/DX2                !
 --------------------------------------------------------------------------------
 Trust Radius=3.00D-01 FncErr=1.00D-07 GrdErr=1.00D-06 EigMax=2.50D+02 EigMin=1.00D-04
 Number of steps in this run=     68 maximum allowed number of steps=    100.
 GradGradGradGradGradGradGradGradGradGradGradGradGradGradGradGradGradGrad

 Leave Link  103 at Tue May 28 16:28:51 2024, MaxMem=   536870912 cpu:               0.1 elap:               0.0
 (Enter /software/gaussian/g16-c01/avx2/g16/l202.exe)
                          Input orientation:                          
 ---------------------------------------------------------------------
 Center     Atomic      Atomic             Coordinates (Angstroms)
 Number     Number       Type             X           Y           Z
 ---------------------------------------------------------------------
      1          1           0        4.030195    0.708733    0.103949
      2          8           0        5.117006   -0.080947    0.114917
      3          6           0        6.069821   -0.029116    1.179979
      4          6           0        6.033312    1.025525    2.102108
      5          6           0        7.040089   -1.032963    1.301611
      6          6           0        6.967072    1.076320    3.145868
      7          1           0        5.292492    1.791984    2.009239
      8          6           0        7.973849   -0.982167    2.345370
      9          1           0        7.067964   -1.838205    0.597545
     10          6           0        7.937342    0.072475    3.267497
     11          1           0        6.939198    1.881562    3.849932
     12          1           0        8.714669   -1.748627    2.438239
     13          1           0        8.650289    0.111258    4.064431
 ---------------------------------------------------------------------
                    Distance matrix (angstroms):
                    1          2          3          4          5
     1  H    0.000000
     2  O    1.343456   0.000000
     3  C    2.421226   1.430000   0.000000
     4  C    2.847012   2.452106   1.401400   0.000000
     5  C    3.677956   2.452106   1.401400   2.427296   0.000000
     6  C    4.244248   3.734792   2.427296   1.401400   2.802800
     7  H    2.529221   2.669667   2.146700   1.070000   3.396345
     8  C    4.841025   3.734792   2.427296   2.802800   1.401400
     9  H    3.994818   2.669667   2.146700   3.396345   1.070000
    10  C    5.067412   4.232800   2.802800   2.427296   2.427296
    11  H    4.885716   4.595886   3.396345   2.146700   3.872800
    12  H    5.782027   4.595886   3.396345   3.872800   2.146700
    13  H    6.114545   5.302800   3.872800   3.396345   3.396345
                    6          7          8          9         10
     6  C    0.000000
     7  H    2.146700   0.000000
     8  C    2.427296   3.872800   0.000000
     9  H    3.872800   4.280590   2.146700   0.000000
    10  C    1.401400   3.396345   1.401400   3.396345   0.000000
    11  H    1.070000   2.471400   3.396345   4.942800   2.146700
    12  H    3.396345   4.942800   1.070000   2.471400   2.146700
    13  H    2.146700   4.280590   2.146700   4.280590   1.070000
                   11         12         13
    11  H    0.000000
    12  H    4.280590   0.000000
    13  H    2.471400   2.471400   0.000000
 Symmetry turned off by external request.
 Stoichiometry    C6H6O
 Framework group  C1[X(C6H6O)]
 Deg. of freedom    33
 Full point group                 C1      NOp   1
 Rotational constants (GHZ):           5.5926474           2.5124647           1.7343332
 Leave Link  202 at Tue May 28 16:28:51 2024, MaxMem=   536870912 cpu:               0.1 elap:               0.1
 (Enter /software/gaussian/g16-c01/avx2/g16/l301.exe)
 Standard basis: 6-31G(d) (6D, 7F)
 Ernie: Thresh=  0.10000D-02 Tol=  0.10000D-05 Strict=F.
   117 basis functions,   220 primitive gaussians,   117 cartesian basis functions
    25 alpha electrons       25 beta electrons
       nuclear repulsion energy       266.6784803009 Hartrees.
 IExCor= 4639 DFT=T Ex+Corr=wB97XD ExCW=0 ScaHFX=  1.000000
 ScaDFX=  1.000000  1.000000  1.000000  1.000000 ScalE2=  1.000000  1.000000
 IRadAn=      5 IRanWt=     -1 IRanGd=            0 ICorTp=0 IEmpDi=121
 HFx  wShort=  0.000000 wLong=  0.200000 cFull=  0.222036 cShort=  0.000000 cLong=  0.777964
 DFx  wShort=  0.000000 wLong=  0.200000 cFull=  0.000000 cShort=  0.000000 cLong=  1.000000
 NAtoms=   13 NActive=   13 NUniq=   13 SFac= 1.00D+00 NAtFMM=   60 NAOKFM=F Big=F
 Integral buffers will be    131072 words long.
 Raffenetti 2 integral format.
 Two-electron integral symmetry is turned off.
 R6Disp:  Grimme-D2 Dispersion energy=       -0.0048516696 Hartrees.
 Nuclear repulsion after empirical dispersion term =      266.6736286314 Hartrees.
 Leave Link  301 at Tue May 28 16:28:52 2024, MaxMem=   536870912 cpu:               0.3 elap:               0.1
 (Enter /software/gaussian/g16-c01/avx2/g16/l302.exe)
 NPDir=0 NMtPBC=     1 NCelOv=     1 NCel=       1 NClECP=     1 NCelD=      1
         NCelK=      1 NCelE2=     1 NClLst=     1 CellRange=     0.0.
 One-electron integrals computed using PRISM.
 NBasis=   117 RedAO= T EigKep=  4.92D-04  NBF=   117
 NBsUse=   117 1.00D-06 EigRej= -1.00D+00 NBFU=   117
 Precomputing XC quadrature grid using
 IXCGrd= 4 IRadAn=           5 IRanWt=          -1 IRanGd=           0 AccXCQ= 0.00D+00.
 Generated NRdTot=       0 NPtTot=           0 NUsed=           0 NTot=          32
 NSgBfM=   117   117   117   117   117 MxSgAt=    13 MxSgA2=    13.
 Leave Link  302 at Tue May 28 16:28:53 2024, MaxMem=   536870912 cpu:               1.6 elap:               0.4
 (Enter /software/gaussian/g16-c01/avx2/g16/l303.exe)
 DipDrv:  MaxL=1.
 Leave Link  303 at Tue May 28 16:28:53 2024, MaxMem=   536870912 cpu:               0.1 elap:               0.1
 (Enter /software/gaussian/g16-c01/avx2/g16/l401.exe)
 ExpMin= 1.61D-01 ExpMax= 5.48D+03 ExpMxC= 8.25D+02 IAcc=3 IRadAn=         5 AccDes= 0.00D+00
 Harris functional with IExCor= 4639 and IRadAn=       5 diagonalized for initial guess.
 HarFok:  IExCor= 4639 AccDes= 0.00D+00 IRadAn=         5 IDoV= 1 UseB2=F ITyADJ=14
 ICtDFT=  3500011 ScaDFX=  1.000000  1.000000  1.000000  1.000000
 FoFCou: FMM=F IPFlag=           0 FMFlag=      100000 FMFlg1=           0
         NFxFlg=           0 DoJE=T BraDBF=F KetDBF=T FulRan=T
         wScrn=  0.000000 ICntrl=       500 IOpCl=  0 I1Cent=   200000004 NGrid=           0
         NMat0=    1 NMatS0=      1 NMatT0=    0 NMatD0=    1 NMtDS0=    0 NMtDT0=    0
 Symmetry not used in FoFCou.
 Harris En= -294.036771156676    
 JPrj=0 DoOrth=F DoCkMO=F.
 Leave Link  401 at Tue May 28 16:28:55 2024, MaxMem=   536870912 cpu:               5.0 elap:               1.3
 (Enter /software/gaussian/g16-c01/avx2/g16/l502.exe)
 Keep R1 ints in memory in canonical form, NReq=52253788.
 FoFCou: FMM=F IPFlag=           0 FMFlag=           0 FMFlg1=           0
         NFxFlg=           0 DoJE=F BraDBF=F KetDBF=F FulRan=T
         wScrn=  0.000000 ICntrl=       600 IOpCl=  0 I1Cent=           0 NGrid=           0
         NMat0=    1 NMatS0=   6903 NMatT0=    0 NMatD0=    1 NMtDS0=    0 NMtDT0=    0
 Symmetry not used in FoFCou.
 Two-electron integral symmetry not used.
 Closed shell SCF:
 Using DIIS extrapolation, IDIIS=  1040.
 NGot=   536870912 LenX=   489183093 LenY=   489168963
 Requested convergence on RMS density matrix=1.00D-08 within 128 cycles.
 Requested convergence on MAX density matrix=1.00D-06.
 Requested convergence on             energy=1.00D-06.
 No special actions if energy rises.
 Integral accuracy reduced to 1.0D-05 until final iterations.

 Cycle   1  Pass 0  IDiag  1:
 E= -307.173276377151    
 DIIS: error= 7.44D-02 at cycle   1 NSaved=   1.
 NSaved= 1 IEnMin= 1 EnMin= -307.173276377151     IErMin= 1 ErrMin= 7.44D-02
 ErrMax= 7.44D-02  0.00D+00 EMaxC= 1.00D-01 BMatC= 3.19D-01 BMatP= 3.19D-01
 IDIUse=3 WtCom= 2.56D-01 WtEn= 7.44D-01
 Coeff-Com:  0.100D+01
 Coeff-En:   0.100D+01
 Coeff:      0.100D+01
 Gap=     0.482 Goal=   None    Shift=    0.000
 GapD=    0.482 DampG=2.000 DampE=0.500 DampFc=1.0000 IDamp=-1.
 RMSDP=5.14D-03 MaxDP=1.05D-01              OVMax= 1.47D-01

 Cycle   2  Pass 0  IDiag  1:
 E= -307.189472586550     Delta-E=       -0.016196209400 Rises=F Damp=F
 DIIS: error= 2.80D-02 at cycle   2 NSaved=   2.
 NSaved= 2 IEnMin= 2 EnMin= -307.189472586550     IErMin= 2 ErrMin= 2.80D-02
 ErrMax= 2.80D-02  0.00D+00 EMaxC= 1.00D-01 BMatC= 1.18D-01 BMatP= 3.19D-01
 IDIUse=3 WtCom= 7.20D-01 WtEn= 2.80D-01
 Coeff-Com:  0.337D+00 0.663D+00
 Coeff-En:   0.451D+00 0.549D+00
 Coeff:      0.369D+00 0.631D+00
 Gap=     0.344 Goal=   None    Shift=    0.000
 RMSDP=3.27D-03 MaxDP=1.01D-01 DE=-1.62D-02 OVMax= 1.28D-01

 Cycle   3  Pass 0  IDiag  1:
 E= -307.258652697831     Delta-E=       -0.069180111280 Rises=F Damp=F
 DIIS: error= 1.55D-02 at cycle   3 NSaved=   3.
 NSaved= 3 IEnMin= 3 EnMin= -307.258652697831     IErMin= 3 ErrMin= 1.55D-02
 ErrMax= 1.55D-02  0.00D+00 EMaxC= 1.00D-01 BMatC= 3.14D-02 BMatP= 1.18D-01
 IDIUse=3 WtCom= 8.45D-01 WtEn= 1.55D-01
 Coeff-Com:  0.123D-01 0.340D+00 0.648D+00
 Coeff-En:   0.000D+00 0.217D+00 0.783D+00
 Coeff:      0.104D-01 0.321D+00 0.669D+00
 Gap=     0.330 Goal=   None    Shift=    0.000
 RMSDP=1.28D-03 MaxDP=4.16D-02 DE=-6.92D-02 OVMax= 4.59D-02

 Cycle   4  Pass 0  IDiag  1:
 E= -307.282952567414     Delta-E=       -0.024299869584 Rises=F Damp=F
 DIIS: error= 2.71D-03 at cycle   4 NSaved=   4.
 NSaved= 4 IEnMin= 4 EnMin= -307.282952567414     IErMin= 4 ErrMin= 2.71D-03
 ErrMax= 2.71D-03  0.00D+00 EMaxC= 1.00D-01 BMatC= 8.98D-04 BMatP= 3.14D-02
 IDIUse=3 WtCom= 9.73D-01 WtEn= 2.71D-02
 Coeff-Com:  0.199D-02 0.102D+00 0.272D+00 0.624D+00
 Coeff-En:   0.000D+00 0.000D+00 0.000D+00 0.100D+01
 Coeff:      0.193D-02 0.992D-01 0.264D+00 0.634D+00
 Gap=     0.316 Goal=   None    Shift=    0.000
 RMSDP=2.13D-04 MaxDP=5.90D-03 DE=-2.43D-02 OVMax= 5.51D-03

 Cycle   5  Pass 0  IDiag  1:
 E= -307.283674742310     Delta-E=       -0.000722174895 Rises=F Damp=F
 DIIS: error= 3.62D-04 at cycle   5 NSaved=   5.
 NSaved= 5 IEnMin= 5 EnMin= -307.283674742310     IErMin= 5 ErrMin= 3.62D-04
 ErrMax= 3.62D-04  0.00D+00 EMaxC= 1.00D-01 BMatC= 2.75D-05 BMatP= 8.98D-04
 IDIUse=3 WtCom= 9.96D-01 WtEn= 3.62D-03
 Coeff-Com: -0.795D-03-0.138D-01-0.438D-02 0.151D+00 0.868D+00
 Coeff-En:   0.000D+00 0.000D+00 0.000D+00 0.000D+00 0.100D+01
 Coeff:     -0.792D-03-0.138D-01-0.436D-02 0.150D+00 0.869D+00
 Gap=     0.318 Goal=   None    Shift=    0.000
 RMSDP=6.91D-05 MaxDP=1.00D-03 DE=-7.22D-04 OVMax= 1.96D-03

 Cycle   6  Pass 0  IDiag  1:
 E= -307.283712582180     Delta-E=       -0.000037839870 Rises=F Damp=F
 DIIS: error= 1.69D-04 at cycle   6 NSaved=   6.
 NSaved= 6 IEnMin= 6 EnMin= -307.283712582180     IErMin= 6 ErrMin= 1.69D-04
 ErrMax= 1.69D-04  0.00D+00 EMaxC= 1.00D-01 BMatC= 4.25D-06 BMatP= 2.75D-05
 IDIUse=3 WtCom= 9.98D-01 WtEn= 1.69D-03
 Coeff-Com: -0.592D-03-0.157D-01-0.260D-01 0.109D-01 0.332D+00 0.700D+00
 Coeff-En:   0.000D+00 0.000D+00 0.000D+00 0.000D+00 0.000D+00 0.100D+01
 Coeff:     -0.591D-03-0.156D-01-0.260D-01 0.109D-01 0.331D+00 0.700D+00
 Gap=     0.318 Goal=   None    Shift=    0.000
 RMSDP=2.76D-05 MaxDP=3.73D-04 DE=-3.78D-05 OVMax= 1.55D-03

 Cycle   7  Pass 0  IDiag  1:
 E= -307.283719151813     Delta-E=       -0.000006569633 Rises=F Damp=F
 DIIS: error= 5.79D-05 at cycle   7 NSaved=   7.
 NSaved= 7 IEnMin= 7 EnMin= -307.283719151813     IErMin= 7 ErrMin= 5.79D-05
 ErrMax= 5.79D-05  0.00D+00 EMaxC= 1.00D-01 BMatC= 4.96D-07 BMatP= 4.25D-06
 IDIUse=1 WtCom= 1.00D+00 WtEn= 0.00D+00
 Coeff-Com:  0.312D-05-0.281D-02-0.682D-02-0.160D-01-0.538D-01 0.193D+00
 Coeff-Com:  0.887D+00
 Coeff:      0.312D-05-0.281D-02-0.682D-02-0.160D-01-0.538D-01 0.193D+00
 Coeff:      0.887D+00
 Gap=     0.318 Goal=   None    Shift=    0.000
 RMSDP=1.31D-05 MaxDP=1.25D-04 DE=-6.57D-06 OVMax= 5.66D-04

 Cycle   8  Pass 0  IDiag  1:
 E= -307.283720314528     Delta-E=       -0.000001162715 Rises=F Damp=F
 DIIS: error= 1.83D-05 at cycle   8 NSaved=   8.
 NSaved= 8 IEnMin= 8 EnMin= -307.283720314528     IErMin= 8 ErrMin= 1.83D-05
 ErrMax= 1.83D-05  0.00D+00 EMaxC= 1.00D-01 BMatC= 6.23D-08 BMatP= 4.96D-07
 IDIUse=1 WtCom= 1.00D+00 WtEn= 0.00D+00
 Coeff-Com:  0.806D-04 0.102D-02 0.143D-02-0.501D-02-0.641D-01-0.334D-01
 Coeff-Com:  0.240D+00 0.860D+00
 Coeff:      0.806D-04 0.102D-02 0.143D-02-0.501D-02-0.641D-01-0.334D-01
 Coeff:      0.240D+00 0.860D+00
 Gap=     0.318 Goal=   None    Shift=    0.000
 RMSDP=4.70D-06 MaxDP=5.90D-05 DE=-1.16D-06 OVMax= 2.84D-04

 Initial convergence to 1.0D-05 achieved.  Increase integral accuracy.
 Cycle   9  Pass 1  IDiag  1:
 E= -307.283666940181     Delta-E=        0.000053374347 Rises=F Damp=F
 DIIS: error= 1.90D-05 at cycle   1 NSaved=   1.
 NSaved= 1 IEnMin= 1 EnMin= -307.283666940181     IErMin= 1 ErrMin= 1.90D-05
 ErrMax= 1.90D-05  0.00D+00 EMaxC= 1.00D-01 BMatC= 1.14D-07 BMatP= 1.14D-07
 IDIUse=1 WtCom= 1.00D+00 WtEn= 0.00D+00
 Coeff-Com:  0.100D+01
 Coeff:      0.100D+01
 Gap=     0.318 Goal=   None    Shift=    0.000
 RMSDP=4.70D-06 MaxDP=5.90D-05 DE= 5.34D-05 OVMax= 9.14D-05

 Cycle  10  Pass 1  IDiag  1:
 E= -307.283667038846     Delta-E=       -0.000000098665 Rises=F Damp=F
 DIIS: error= 6.82D-06 at cycle   2 NSaved=   2.
 NSaved= 2 IEnMin= 2 EnMin= -307.283667038846     IErMin= 2 ErrMin= 6.82D-06
 ErrMax= 6.82D-06  0.00D+00 EMaxC= 1.00D-01 BMatC= 9.91D-09 BMatP= 1.14D-07
 IDIUse=1 WtCom= 1.00D+00 WtEn= 0.00D+00
 Coeff-Com:  0.663D-01 0.934D+00
 Coeff:      0.663D-01 0.934D+00
 Gap=     0.318 Goal=   None    Shift=    0.000
 RMSDP=1.46D-06 MaxDP=2.57D-05 DE=-9.87D-08 OVMax= 6.64D-05

 Cycle  11  Pass 1  IDiag  1:
 E= -307.283667043655     Delta-E=       -0.000000004809 Rises=F Damp=F
 DIIS: error= 7.95D-06 at cycle   3 NSaved=   3.
 NSaved= 3 IEnMin= 3 EnMin= -307.283667043655     IErMin= 2 ErrMin= 6.82D-06
 ErrMax= 7.95D-06  0.00D+00 EMaxC= 1.00D-01 BMatC= 6.99D-09 BMatP= 9.91D-09
 IDIUse=1 WtCom= 1.00D+00 WtEn= 0.00D+00
 Coeff-Com: -0.522D-01 0.463D+00 0.589D+00
 Coeff:     -0.522D-01 0.463D+00 0.589D+00
 Gap=     0.318 Goal=   None    Shift=    0.000
 RMSDP=7.49D-07 MaxDP=1.19D-05 DE=-4.81D-09 OVMax= 3.92D-05

 Cycle  12  Pass 1  IDiag  1:
 E= -307.283667051250     Delta-E=       -0.000000007595 Rises=F Damp=F
 DIIS: error= 1.38D-06 at cycle   4 NSaved=   4.
 NSaved= 4 IEnMin= 4 EnMin= -307.283667051250     IErMin= 4 ErrMin= 1.38D-06
 ErrMax= 1.38D-06  0.00D+00 EMaxC= 1.00D-01 BMatC= 1.72D-10 BMatP= 6.99D-09
 IDIUse=1 WtCom= 1.00D+00 WtEn= 0.00D+00
 Coeff-Com: -0.166D-01 0.910D-01 0.173D+00 0.752D+00
 Coeff:     -0.166D-01 0.910D-01 0.173D+00 0.752D+00
 Gap=     0.318 Goal=   None    Shift=    0.000
 RMSDP=1.92D-07 MaxDP=3.77D-06 DE=-7.59D-09 OVMax= 1.22D-05

 Cycle  13  Pass 1  IDiag  1:
 E= -307.283667051587     Delta-E=       -0.000000000338 Rises=F Damp=F
 DIIS: error= 6.96D-07 at cycle   5 NSaved=   5.
 NSaved= 5 IEnMin= 5 EnMin= -307.283667051587     IErMin= 5 ErrMin= 6.96D-07
 ErrMax= 6.96D-07  0.00D+00 EMaxC= 1.00D-01 BMatC= 4.32D-11 BMatP= 1.72D-10
 IDIUse=1 WtCom= 1.00D+00 WtEn= 0.00D+00
 Coeff-Com:  0.687D-02-0.826D-01-0.805D-01 0.250D+00 0.907D+00
 Coeff:      0.687D-02-0.826D-01-0.805D-01 0.250D+00 0.907D+00
 Gap=     0.318 Goal=   None    Shift=    0.000
 RMSDP=1.46D-07 MaxDP=2.84D-06 DE=-3.38D-10 OVMax= 8.67D-06

 Cycle  14  Pass 1  IDiag  1:
 E= -307.283667051715     Delta-E=       -0.000000000128 Rises=F Damp=F
 DIIS: error= 2.58D-07 at cycle   6 NSaved=   6.
 NSaved= 6 IEnMin= 6 EnMin= -307.283667051715     IErMin= 6 ErrMin= 2.58D-07
 ErrMax= 2.58D-07  0.00D+00 EMaxC= 1.00D-01 BMatC= 7.59D-12 BMatP= 4.32D-11
 IDIUse=1 WtCom= 1.00D+00 WtEn= 0.00D+00
 Coeff-Com:  0.518D-02-0.463D-01-0.568D-01-0.191D-02 0.334D+00 0.766D+00
 Coeff:      0.518D-02-0.463D-01-0.568D-01-0.191D-02 0.334D+00 0.766D+00
 Gap=     0.318 Goal=   None    Shift=    0.000
 RMSDP=6.03D-08 MaxDP=1.44D-06 DE=-1.28D-10 OVMax= 3.99D-06

 Cycle  15  Pass 1  IDiag  1:
 E= -307.283667051736     Delta-E=       -0.000000000021 Rises=F Damp=F
 DIIS: error= 1.74D-07 at cycle   7 NSaved=   7.
 NSaved= 7 IEnMin= 7 EnMin= -307.283667051736     IErMin= 7 ErrMin= 1.74D-07
 ErrMax= 1.74D-07  0.00D+00 EMaxC= 1.00D-01 BMatC= 2.16D-12 BMatP= 7.59D-12
 IDIUse=1 WtCom= 1.00D+00 WtEn= 0.00D+00
 Coeff-Com:  0.223D-03 0.417D-02-0.258D-03-0.666D-01-0.123D+00 0.346D+00
 Coeff-Com:  0.840D+00
 Coeff:      0.223D-03 0.417D-02-0.258D-03-0.666D-01-0.123D+00 0.346D+00
 Coeff:      0.840D+00
 Gap=     0.318 Goal=   None    Shift=    0.000
 RMSDP=3.63D-08 MaxDP=7.04D-07 DE=-2.07D-11 OVMax= 2.38D-06

 Cycle  16  Pass 1  IDiag  1:
 E= -307.283667051743     Delta-E=       -0.000000000008 Rises=F Damp=F
 DIIS: error= 3.84D-08 at cycle   8 NSaved=   8.
 NSaved= 8 IEnMin= 8 EnMin= -307.283667051743     IErMin= 8 ErrMin= 3.84D-08
 ErrMax= 3.84D-08  0.00D+00 EMaxC= 1.00D-01 BMatC= 1.81D-13 BMatP= 2.16D-12
 IDIUse=1 WtCom= 1.00D+00 WtEn= 0.00D+00
 Coeff-Com: -0.598D-03 0.695D-02 0.694D-02-0.216D-01-0.809D-01 0.160D-02
 Coeff-Com:  0.227D+00 0.861D+00
 Coeff:     -0.598D-03 0.695D-02 0.694D-02-0.216D-01-0.809D-01 0.160D-02
 Coeff:      0.227D+00 0.861D+00
 Gap=     0.318 Goal=   None    Shift=    0.000
 RMSDP=1.29D-08 MaxDP=3.03D-07 DE=-7.50D-12 OVMax= 8.44D-07

 Cycle  17  Pass 1  IDiag  1:
 E= -307.283667051744     Delta-E=       -0.000000000001 Rises=F Damp=F
 DIIS: error= 1.32D-08 at cycle   9 NSaved=   9.
 NSaved= 9 IEnMin= 9 EnMin= -307.283667051744     IErMin= 9 ErrMin= 1.32D-08
 ErrMax= 1.32D-08  0.00D+00 EMaxC= 1.00D-01 BMatC= 3.70D-14 BMatP= 1.81D-13
 IDIUse=1 WtCom= 1.00D+00 WtEn= 0.00D+00
 Coeff-Com: -0.206D-03 0.123D-02 0.208D-02 0.716D-02 0.425D-02-0.683D-01
 Coeff-Com: -0.997D-01 0.286D+00 0.868D+00
 Coeff:     -0.206D-03 0.123D-02 0.208D-02 0.716D-02 0.425D-02-0.683D-01
 Coeff:     -0.997D-01 0.286D+00 0.868D+00
 Gap=     0.318 Goal=   None    Shift=    0.000
 RMSDP=4.70D-09 MaxDP=1.19D-07 DE=-6.82D-13 OVMax= 2.92D-07

 SCF Done:  E(RwB97XD) =  -307.283667052     A.U. after   17 cycles
            NFock= 17  Conv=0.47D-08     -V/T= 2.0107
 KE= 3.040351415265D+02 PE=-1.248195054303D+03 EE= 3.702026170934D+02
 Leave Link  502 at Tue May 28 16:29:05 2024, MaxMem=   536870912 cpu:              36.0 elap:               9.4
 (Enter /software/gaussian/g16-c01/avx2/g16/l601.exe)
 Copying SCF densities to generalized density rwf, IOpCl= 0 IROHF=0.

 **********************************************************************

            Population analysis using the SCF Density.

 **********************************************************************

 Alpha  occ. eigenvalues --  -19.30849 -10.36392 -10.30314 -10.30239 -10.29920
 Alpha  occ. eigenvalues --  -10.29820 -10.29368  -1.08802  -0.94204  -0.84319
 Alpha  occ. eigenvalues --   -0.82553  -0.70299  -0.68364  -0.60849  -0.56848
 Alpha  occ. eigenvalues --   -0.54200  -0.51902  -0.50653  -0.47586  -0.44994
 Alpha  occ. eigenvalues --   -0.43484  -0.41005  -0.40079  -0.32430  -0.29324
 Alpha virt. eigenvalues --    0.02525   0.07014   0.08567   0.17807   0.23448
 Alpha virt. eigenvalues --    0.24433   0.25170   0.27545   0.27951   0.29979
 Alpha virt. eigenvalues --    0.36793   0.38562   0.41927   0.42724   0.56717
 Alpha virt. eigenvalues --    0.59615   0.61454   0.63341   0.65252   0.68099
 Alpha virt. eigenvalues --    0.69017   0.69201   0.69611   0.70268   0.70689
 Alpha virt. eigenvalues --    0.71921   0.75707   0.76839   0.80921   0.85306
 Alpha virt. eigenvalues --    0.89693   0.94795   0.95185   0.96586   0.97687
 Alpha virt. eigenvalues --    1.01548   1.03527   1.03836   1.05845   1.08222
 Alpha virt. eigenvalues --    1.13245   1.18162   1.19526   1.26472   1.27780
 Alpha virt. eigenvalues --    1.33514   1.40637   1.43702   1.46641   1.52752
 Alpha virt. eigenvalues --    1.54616   1.55576   1.57820   1.59247   1.71405
 Alpha virt. eigenvalues --    1.86678   1.86917   1.88352   1.91756   2.00291
 Alpha virt. eigenvalues --    2.01201   2.03383   2.05878   2.07104   2.08214
 Alpha virt. eigenvalues --    2.15166   2.20328   2.22786   2.23967   2.32065
 Alpha virt. eigenvalues --    2.34366   2.38704   2.39350   2.54152   2.56610
 Alpha virt. eigenvalues --    2.66337   2.71257   2.73287   2.80118   2.81576
 Alpha virt. eigenvalues --    2.81868   2.89767   3.04021   3.16443   3.49723
 Alpha virt. eigenvalues --    3.99891   4.18847   4.22036   4.26109   4.43194
 Alpha virt. eigenvalues --    4.49528   4.82028
          Condensed to atoms (all electrons):
               1          2          3          4          5          6
     1  H    0.472502   0.198125  -0.019440   0.000549   0.001489   0.000519
     2  O    0.198125   8.325448   0.211461  -0.044854  -0.041568   0.004288
     3  C   -0.019440   0.211461   4.466494   0.519263   0.553125  -0.015469
     4  C    0.000549  -0.044854   0.519263   5.045354  -0.062447   0.503039
     5  C    0.001489  -0.041568   0.553125  -0.062447   4.966953  -0.034882
     6  C    0.000519   0.004288  -0.015469   0.503039  -0.034882   4.889470
     7  H    0.004178  -0.005344  -0.041094   0.364566   0.004871  -0.037249
     8  C   -0.000081   0.002747  -0.019931  -0.035749   0.532658  -0.033659
     9  H   -0.000148  -0.001244  -0.033571   0.005560   0.362541  -0.000030
    10  C   -0.000000   0.000030  -0.034636  -0.043580  -0.042184   0.555522
    11  H   -0.000009  -0.000042   0.002668  -0.033623   0.000447   0.369059
    12  H    0.000001  -0.000034   0.003028   0.000480  -0.036389   0.003888
    13  H   -0.000000   0.000001   0.000602   0.003967   0.003862  -0.038472
               7          8          9         10         11         12
     1  H    0.004178  -0.000081  -0.000148  -0.000000  -0.000009   0.000001
     2  O   -0.005344   0.002747  -0.001244   0.000030  -0.000042  -0.000034
     3  C   -0.041094  -0.019931  -0.033571  -0.034636   0.002668   0.003028
     4  C    0.364566  -0.035749   0.005560  -0.043580  -0.033623   0.000480
     5  C    0.004871   0.532658   0.362541  -0.042184   0.000447  -0.036389
     6  C   -0.037249  -0.033659  -0.000030   0.555522   0.369059   0.003888
     7  H    0.559038   0.000227  -0.000130   0.004230  -0.004615   0.000011
     8  C    0.000227   4.867892  -0.039514   0.552282   0.003881   0.372720
     9  H   -0.000130  -0.039514   0.526885   0.004151   0.000012  -0.004459
    10  C    0.004230   0.552282   0.004151   4.884170  -0.037623  -0.037722
    11  H   -0.004615   0.003881   0.000012  -0.037623   0.534756  -0.000153
    12  H    0.000011   0.372720  -0.004459  -0.037722  -0.000153   0.529116
    13  H   -0.000144  -0.038642  -0.000133   0.372150  -0.003997  -0.003919
              13
     1  H   -0.000000
     2  O    0.000001
     3  C    0.000602
     4  C    0.003967
     5  C    0.003862
     6  C   -0.038472
     7  H   -0.000144
     8  C   -0.038642
     9  H   -0.000133
    10  C    0.372150
    11  H   -0.003997
    12  H   -0.003919
    13  H    0.541083
 Mulliken charges:
               1
     1  H    0.342314
     2  O   -0.649015
     3  C    0.407499
     4  C   -0.222524
     5  C   -0.208476
     6  C   -0.166024
     7  H    0.151455
     8  C   -0.164831
     9  H    0.180079
    10  C   -0.176790
    11  H    0.169239
    12  H    0.173432
    13  H    0.163641
 Sum of Mulliken charges =  -0.00000
 Mulliken charges with hydrogens summed into heavy atoms:
               1
     2  O   -0.306701
     3  C    0.407499
     4  C   -0.071069
     5  C   -0.028398
     6  C    0.003215
     8  C    0.008601
    10  C   -0.013149
 Electronic spatial extent (au):  <R**2>=           9277.8436
 Charge=             -0.0000 electrons
 Dipole moment (field-independent basis, Debye):
    X=             -0.8736    Y=              1.0458    Z=              0.6588  Tot=              1.5136
 Quadrupole moment (field-independent basis, Debye-Ang):
   XX=            -45.4444   YY=            -37.4416   ZZ=            -38.9230
   XY=              0.8056   XZ=              6.4002   YZ=              2.1973
 Traceless Quadrupole moment (field-independent basis, Debye-Ang):
   XX=             -4.8414   YY=              3.1614   ZZ=              1.6800
   XY=              0.8056   XZ=              6.4002   YZ=              2.1973
 Octapole moment (field-independent basis, Debye-Ang**2):
  XXX=           -819.3581  YYY=             -2.6740  ZZZ=           -226.1309  XYY=           -253.0621
  XXY=            -29.6395  XXZ=            -16.8366  XZZ=           -249.4867  YZZ=              9.6916
  YYZ=            -73.2175  XYZ=              9.4085
 Hexadecapole moment (field-independent basis, Debye-Ang**3):
 XXXX=         -11016.9177 YYYY=           -217.2261 ZZZZ=          -1205.8990 XXXY=           -381.4131
 XXXZ=          -1106.8347 YYYX=             13.4692 YYYZ=            -35.7540 ZZZX=          -1576.5268
 ZZZY=              0.6527 XXYY=          -1789.2972 XXZZ=          -1837.8944 YYZZ=           -228.3660
 XXYZ=              6.2856 YYXZ=           -527.2426 ZZXY=             71.2032
 N-N= 2.666736286314D+02 E-N=-1.248195053390D+03  KE= 3.040351415265D+02
 No NMR shielding tensors so no spin-rotation constants.
 Leave Link  601 at Tue May 28 16:29:06 2024, MaxMem=   536870912 cpu:               0.8 elap:               0.2
 (Enter /software/gaussian/g16-c01/avx2/g16/l701.exe)
 ... and contract with generalized density number  0.
 Compute integral first derivatives.
 R6Disp: Adding Grimme-D2 dispersion energy 1st derivatives to the gradient.
 Leave Link  701 at Tue May 28 16:29:06 2024, MaxMem=   536870912 cpu:               0.8 elap:               0.2
 (Enter /software/gaussian/g16-c01/avx2/g16/l702.exe)
 L702 exits ... SP integral derivatives will be done elsewhere.
 Leave Link  702 at Tue May 28 16:29:07 2024, MaxMem=   536870912 cpu:               0.1 elap:               0.0
 (Enter /software/gaussian/g16-c01/avx2/g16/l703.exe)
 Integral derivatives from FoFJK, PRISM(SPDF).
 Compute integral first derivatives, UseDBF=F ICtDFT=           0.
 Calling FoFJK, ICntrl=      2127 FMM=F ISym2X=0 I1Cent= 0 IOpClX= 0 NMat=1 NMatS=1 NMatT=0.
 FoFJK:  IHMeth= 1 ICntrl=    2127 DoSepK=T KAlg= 0 I1Cent=           0 FoldK=F
 IRaf=         1 NMat=       1 IRICut=       1 DoRegI=T DoRafI=F ISym2E= 0 IDoP0=0 IntGTp=1.
 FoFCou: FMM=F IPFlag=           0 FMFlag=      100000 FMFlg1=         800
         NFxFlg=           0 DoJE=F BraDBF=F KetDBF=F FulRan=T
         wScrn=  0.000000 ICntrl=      2527 IOpCl=  0 I1Cent=           0 NGrid=           0
         NMat0=    1 NMatS0=      1 NMatT0=    0 NMatD0=    1 NMtDS0=    0 NMtDT0=    0
 Symmetry not used in FoFCou.
 Leave Link  703 at Tue May 28 16:29:11 2024, MaxMem=   536870912 cpu:              13.4 elap:               3.4
 (Enter /software/gaussian/g16-c01/avx2/g16/l716.exe)
 Dipole        =-3.43708080D-01 4.11456863D-01 2.59203276D-01
 -------------------------------------------------------------------
 Center     Atomic                   Forces (Hartrees/Bohr)
 Number     Number              X              Y              Z
 -------------------------------------------------------------------
      1        1           0.101726009   -0.061433419    0.017718914
      2        8          -0.050848495    0.040662685    0.009078517
      3        6          -0.040631254    0.023047384   -0.012845579
      4        6           0.016442587   -0.012181130    0.006427527
      5        6          -0.002627651    0.006498909    0.003053189
      6        6           0.000709598   -0.017600902   -0.015476164
      7        1          -0.008752637    0.007850760   -0.001971803
      8        6          -0.017636434    0.020879996   -0.001565002
      9        1          -0.001416637   -0.007745744   -0.007956639
     10        6          -0.010571045   -0.000635504   -0.011855597
     11        1          -0.000859603    0.008827687    0.007136129
     12        1           0.007013226   -0.008569602   -0.000268553
     13        1           0.007452336    0.000398880    0.008525063
 -------------------------------------------------------------------
 Cartesian Forces:  Max     0.101726009 RMS     0.024715476
 Leave Link  716 at Tue May 28 16:29:11 2024, MaxMem=   536870912 cpu:               0.1 elap:               0.1
 (Enter /software/gaussian/g16-c01/avx2/g16/l103.exe)

 GradGradGradGradGradGradGradGradGradGradGradGradGradGradGradGradGradGrad
 Berny optimization.
 FormGI is forming the generalized inverse of G from B-inverse, IUseBI=4.
 Internal  Forces:  Max     0.118540886 RMS     0.019094232
 Search for a local minimum.
 Step number   1 out of a maximum of   68
 All quantities printed in internal units (Hartrees-Bohrs-Radians)
 RMS Force = .19094D-01 SwitMx=.10000D-02 MixMth= 1
 Mixed Optimization -- RFO/linear search
 Second derivative matrix not updated -- first step.
 ITU=  0
     Eigenvalues ---    0.01295   0.01929   0.02070   0.02070   0.02070
     Eigenvalues ---    0.02070   0.02070   0.02070   0.02070   0.02070
     Eigenvalues ---    0.16000   0.16000   0.16000   0.16000   0.16000
     Eigenvalues ---    0.16000   0.16582   0.22000   0.22000   0.23485
     Eigenvalues ---    0.25000   0.37230   0.37230   0.37230   0.37230
     Eigenvalues ---    0.37230   0.40989   0.41268   0.41459   0.45389
     Eigenvalues ---    0.45389   0.45389   0.45389
 RFO step:  Lambda=-7.81583015D-02 EMin= 1.29493791D-02
 Linear search not attempted -- first point.
 Maximum step size (   0.300) exceeded in Quadratic search.
    -- Step size scaled by   0.545
 Iteration  1 RMS(Cart)=  0.05072287 RMS(Int)=  0.01002644
 Iteration  2 RMS(Cart)=  0.00903630 RMS(Int)=  0.00002824
 Iteration  3 RMS(Cart)=  0.00005251 RMS(Int)=  0.00001325
 Iteration  4 RMS(Cart)=  0.00000000 RMS(Int)=  0.00001325
 ITry= 1 IFail=0 DXMaxC= 3.27D-01 DCOld= 1.00D+10 DXMaxT= 3.00D-01 DXLimC= 3.00D+00 Rises=F
 Variable       Old X    -DE/DX   Delta X   Delta X   Delta X     New X
                                 (Linear)    (Quad)   (Total)
    R1        2.53876  -0.11854   0.00000  -0.26496  -0.26496   2.27380
    R2        2.70231  -0.05311   0.00000  -0.05934  -0.05934   2.64297
    R3        2.64826  -0.00740   0.00000  -0.00758  -0.00757   2.64069
    R4        2.64826  -0.01249   0.00000  -0.01284  -0.01284   2.63543
    R5        2.64826  -0.00986   0.00000  -0.01006  -0.01006   2.63820
    R6        2.02201   0.01185   0.00000   0.01435   0.01435   2.03636
    R7        2.64826  -0.00934   0.00000  -0.00961  -0.00961   2.63865
    R8        2.02201   0.01103   0.00000   0.01335   0.01335   2.03536
    R9        2.64826  -0.00845   0.00000  -0.00862  -0.00863   2.63964
   R10        2.02201   0.01136   0.00000   0.01375   0.01375   2.03576
   R11        2.64826  -0.00751   0.00000  -0.00770  -0.00771   2.64056
   R12        2.02201   0.01097   0.00000   0.01328   0.01328   2.03529
   R13        2.02201   0.01133   0.00000   0.01372   0.01372   2.03572
    A1        2.12209  -0.04966   0.00000  -0.11372  -0.11372   2.00838
    A2        2.09440   0.01356   0.00000   0.02250   0.02249   2.11689
    A3        2.09440  -0.01852   0.00000  -0.03082  -0.03082   2.06357
    A4        2.09440   0.00496   0.00000   0.00832   0.00833   2.10272
    A5        2.09440  -0.00222   0.00000  -0.00383  -0.00383   2.09057
    A6        2.09440  -0.00015   0.00000  -0.00098  -0.00098   2.09342
    A7        2.09440   0.00237   0.00000   0.00481   0.00481   2.09920
    A8        2.09440  -0.00498   0.00000  -0.00912  -0.00912   2.08528
    A9        2.09440   0.00057   0.00000   0.00017   0.00016   2.09456
   A10        2.09440   0.00441   0.00000   0.00895   0.00895   2.10335
   A11        2.09440   0.00044   0.00000   0.00109   0.00109   2.09548
   A12        2.09440  -0.00093   0.00000  -0.00218  -0.00218   2.09222
   A13        2.09440   0.00049   0.00000   0.00109   0.00109   2.09549
   A14        2.09440   0.00388   0.00000   0.00714   0.00713   2.10153
   A15        2.09440  -0.00349   0.00000  -0.00713  -0.00713   2.08727
   A16        2.09440  -0.00038   0.00000  -0.00001  -0.00001   2.09439
   A17        2.09440  -0.00208   0.00000  -0.00360  -0.00361   2.09079
   A18        2.09440   0.00099   0.00000   0.00169   0.00169   2.09608
   A19        2.09440   0.00109   0.00000   0.00192   0.00192   2.09631
    D1       -0.21990   0.00024   0.00000   0.00154   0.00155  -0.21835
    D2        2.92169   0.00085   0.00000   0.00496   0.00495   2.92664
    D3       -3.14159   0.00061   0.00000   0.00337   0.00343  -3.13817
    D4       -0.00000   0.00055   0.00000   0.00307   0.00311   0.00311
    D5        0.00000  -0.00000   0.00000  -0.00004  -0.00005  -0.00004
    D6        3.14159  -0.00006   0.00000  -0.00035  -0.00036   3.14123
    D7        3.14159  -0.00081   0.00000  -0.00447  -0.00442   3.13717
    D8       -0.00000  -0.00062   0.00000  -0.00345  -0.00342  -0.00342
    D9       -0.00000  -0.00019   0.00000  -0.00105  -0.00105  -0.00105
   D10        3.14159  -0.00001   0.00000  -0.00004  -0.00005   3.14154
   D11        0.00000   0.00012   0.00000   0.00067   0.00068   0.00068
   D12        3.14159   0.00003   0.00000   0.00019   0.00019  -3.14141
   D13       -3.14159   0.00018   0.00000   0.00098   0.00100  -3.14059
   D14        0.00000   0.00009   0.00000   0.00050   0.00050   0.00050
   D15        0.00000   0.00028   0.00000   0.00152   0.00153   0.00153
   D16        3.14159   0.00009   0.00000   0.00048   0.00048  -3.14112
   D17        3.14159   0.00009   0.00000   0.00050   0.00052  -3.14108
   D18       -0.00000  -0.00010   0.00000  -0.00054  -0.00053  -0.00053
   D19       -0.00000  -0.00004   0.00000  -0.00020  -0.00021  -0.00021
   D20        3.14159  -0.00002   0.00000  -0.00013  -0.00013   3.14146
   D21        3.14159   0.00005   0.00000   0.00028   0.00028  -3.14131
   D22        0.00000   0.00006   0.00000   0.00036   0.00036   0.00036
   D23        0.00000  -0.00016   0.00000  -0.00089  -0.00090  -0.00090
   D24        3.14159  -0.00018   0.00000  -0.00097  -0.00098   3.14062
   D25       -3.14159   0.00003   0.00000   0.00015   0.00015  -3.14144
   D26        0.00000   0.00001   0.00000   0.00007   0.00008   0.00008
         Item               Value     Threshold  Converged?
 Maximum Force            0.118541     0.000450     NO 
 RMS     Force            0.019094     0.000300     NO 
 Maximum Displacement     0.326858     0.001800     NO 
 RMS     Displacement     0.056024     0.001200     NO 
 Predicted change in Energy=-3.452134D-02
 Lowest energy point so far.  Saving SCF results.
 GradGradGradGradGradGradGradGradGradGradGradGradGradGradGradGradGradGrad

 Leave Link  103 at Tue May 28 16:29:11 2024, MaxMem=   536870912 cpu:               0.1 elap:               0.0
 (Enter /software/gaussian/g16-c01/avx2/g16/l202.exe)
                          Input orientation:                          
 ---------------------------------------------------------------------
 Center     Atomic      Atomic             Coordinates (Angstroms)
 Number     Number       Type             X           Y           Z
 ---------------------------------------------------------------------
      1          1           0        4.203161    0.654332    0.209686
      2          8           0        5.140020   -0.096004    0.125476
      3          6           0        6.056578   -0.020246    1.179163
      4          6           0        6.020566    1.031842    2.098140
      5          6           0        7.017941   -1.024359    1.290821
      6          6           0        6.953472    1.078472    3.135704
      7          1           0        5.274208    1.803341    2.003546
      8          6           0        7.949166   -0.971549    2.329917
      9          1           0        7.038770   -1.831822    0.578334
     10          6           0        7.919765    0.076687    3.253414
     11          1           0        6.926996    1.888758    3.845114
     12          1           0        8.692689   -1.745804    2.417625
     13          1           0        8.639970    0.112185    4.053744
 ---------------------------------------------------------------------
                    Distance matrix (angstroms):
                    1          2          3          4          5
     1  H    0.000000
     2  O    1.203246   0.000000
     3  C    2.197748   1.398597   0.000000
     4  C    2.647968   2.436965   1.397392   0.000000
     5  C    3.451064   2.397177   1.394607   2.423733   0.000000
     6  C    4.038030   3.705330   2.416537   1.396075   2.798150
     7  H    2.384386   2.674446   2.148762   1.077594   3.397715
     8  C    4.601242   3.676607   2.410623   2.790482   1.396313
     9  H    3.789135   2.612164   2.146510   3.398106   1.077065
    10  C    4.838502   4.188174   2.789870   2.419490   2.424326
    11  H    4.707380   4.579112   3.392524   2.146588   3.875427
    12  H    5.549010   4.538419   3.385325   3.867510   2.143584
    13  H    5.895421   5.265385   3.867127   3.395797   3.399478
                    6          7          8          9         10
     6  C    0.000000
     7  H    2.151079   0.000000
     8  C    2.417288   3.868065   0.000000
     9  H    3.875207   4.284778   2.153355   0.000000
    10  C    1.396836   3.397421   1.397322   3.402149   0.000000
    11  H    1.077278   2.475960   3.394408   4.952481   2.149255
    12  H    3.393678   4.945089   1.077029   2.475044   2.148821
    13  H    2.149601   4.288552   2.150178   4.292025   1.077258
                   11         12         13
    11  H    0.000000
    12  H    4.285492   0.000000
    13  H    2.476695   2.476245   0.000000
 Symmetry turned off by external request.
 Stoichiometry    C6H6O
 Framework group  C1[X(C6H6O)]
 Deg. of freedom    33
 Full point group                 C1      NOp   1
 Rotational constants (GHZ):           5.6213737           2.5758815           1.7670681
 Leave Link  202 at Tue May 28 16:29:11 2024, MaxMem=   536870912 cpu:               0.1 elap:               0.0
 (Enter /software/gaussian/g16-c01/avx2/g16/l301.exe)
 Standard basis: 6-31G(d) (6D, 7F)
 Ernie: Thresh=  0.10000D-02 Tol=  0.10000D-05 Strict=F.
   117 basis functions,   220 primitive gaussians,   117 cartesian basis functions
    25 alpha electrons       25 beta electrons
       nuclear repulsion energy       268.8507896557 Hartrees.
 IExCor= 4639 DFT=T Ex+Corr=wB97XD ExCW=0 ScaHFX=  1.000000
 ScaDFX=  1.000000  1.000000  1.000000  1.000000 ScalE2=  1.000000  1.000000
 IRadAn=      5 IRanWt=     -1 IRanGd=            0 ICorTp=0 IEmpDi=121
 HFx  wShort=  0.000000 wLong=  0.200000 cFull=  0.222036 cShort=  0.000000 cLong=  0.777964
 DFx  wShort=  0.000000 wLong=  0.200000 cFull=  0.000000 cShort=  0.000000 cLong=  1.000000
 NAtoms=   13 NActive=   13 NUniq=   13 SFac= 1.00D+00 NAtFMM=   60 NAOKFM=F Big=F
 Integral buffers will be    131072 words long.
 Raffenetti 2 integral format.
 Two-electron integral symmetry is turned off.
 R6Disp:  Grimme-D2 Dispersion energy=       -0.0048538334 Hartrees.
 Nuclear repulsion after empirical dispersion term =      268.8459358223 Hartrees.
 Leave Link  301 at Tue May 28 16:29:11 2024, MaxMem=   536870912 cpu:               0.2 elap:               0.1
 (Enter /software/gaussian/g16-c01/avx2/g16/l302.exe)
 NPDir=0 NMtPBC=     1 NCelOv=     1 NCel=       1 NClECP=     1 NCelD=      1
         NCelK=      1 NCelE2=     1 NClLst=     1 CellRange=     0.0.
 One-electron integrals computed using PRISM.
 NBasis=   117 RedAO= T EigKep=  4.82D-04  NBF=   117
 NBsUse=   117 1.00D-06 EigRej= -1.00D+00 NBFU=   117
 Precomputing XC quadrature grid using
 IXCGrd= 4 IRadAn=           5 IRanWt=          -1 IRanGd=           0 AccXCQ= 0.00D+00.
 Generated NRdTot=       0 NPtTot=           0 NUsed=           0 NTot=          32
 NSgBfM=   117   117   117   117   117 MxSgAt=    13 MxSgA2=    13.
 Leave Link  302 at Tue May 28 16:29:12 2024, MaxMem=   536870912 cpu:               1.4 elap:               0.4
 (Enter /software/gaussian/g16-c01/avx2/g16/l303.exe)
 DipDrv:  MaxL=1.
 Leave Link  303 at Tue May 28 16:29:12 2024, MaxMem=   536870912 cpu:               0.1 elap:               0.1
 (Enter /software/gaussian/g16-c01/avx2/g16/l401.exe)
 Initial guess from the checkpoint file:  "geometry.chk"
 B after Tr=    -0.010690   -0.010695   -0.017651
         Rot=    1.000000    0.000483    0.000398   -0.000435 Ang=   0.09 deg.
 Guess basis will be translated and rotated to current coordinates.
 JPrj=2 DoOrth=T DoCkMO=T.
 Generating alternative initial guess.
 ExpMin= 1.61D-01 ExpMax= 5.48D+03 ExpMxC= 8.25D+02 IAcc=3 IRadAn=         5 AccDes= 0.00D+00
 Harris functional with IExCor= 4639 and IRadAn=       5 diagonalized for initial guess.
 HarFok:  IExCor= 4639 AccDes= 0.00D+00 IRadAn=         5 IDoV= 1 UseB2=F ITyADJ=14
 ICtDFT=  3500011 ScaDFX=  1.000000  1.000000  1.000000  1.000000
 FoFCou: FMM=F IPFlag=           0 FMFlag=      100000 FMFlg1=           0
         NFxFlg=           0 DoJE=T BraDBF=F KetDBF=T FulRan=T
         wScrn=  0.000000 ICntrl=       500 IOpCl=  0 I1Cent=   200000004 NGrid=           0
         NMat0=    1 NMatS0=      1 NMatT0=    0 NMatD0=    1 NMtDS0=    0 NMtDT0=    0
 Symmetry not used in FoFCou.
 Harris En= -294.056371616417    
 Leave Link  401 at Tue May 28 16:29:13 2024, MaxMem=   536870912 cpu:               4.1 elap:               1.0
 (Enter /software/gaussian/g16-c01/avx2/g16/l502.exe)
 Keep R1 ints in memory in canonical form, NReq=52253788.
 FoFCou: FMM=F IPFlag=           0 FMFlag=           0 FMFlg1=           0
         NFxFlg=           0 DoJE=F BraDBF=F KetDBF=F FulRan=T
         wScrn=  0.000000 ICntrl=       600 IOpCl=  0 I1Cent=           0 NGrid=           0
         NMat0=    1 NMatS0=   6903 NMatT0=    0 NMatD0=    1 NMtDS0=    0 NMtDT0=    0
 Symmetry not used in FoFCou.
 Two-electron integral symmetry not used.
 Closed shell SCF:
 Using DIIS extrapolation, IDIIS=  1040.
 NGot=   536870912 LenX=   489183093 LenY=   489168963
 Requested convergence on RMS density matrix=1.00D-08 within 128 cycles.
 Requested convergence on MAX density matrix=1.00D-06.
 Requested convergence on             energy=1.00D-06.
 No special actions if energy rises.
 Integral accuracy reduced to 1.0D-05 until final iterations.

 Cycle   1  Pass 0  IDiag  1:
 E= -307.320556174418    
 DIIS: error= 4.03D-03 at cycle   1 NSaved=   1.
 NSaved= 1 IEnMin= 1 EnMin= -307.320556174418     IErMin= 1 ErrMin= 4.03D-03
 ErrMax= 4.03D-03  0.00D+00 EMaxC= 1.00D-01 BMatC= 2.31D-03 BMatP= 2.31D-03
 IDIUse=3 WtCom= 9.60D-01 WtEn= 4.03D-02
 Coeff-Com:  0.100D+01
 Coeff-En:   0.100D+01
 Coeff:      0.100D+01
 Gap=     2.069 Goal=   None    Shift=    0.000
 GapD=    2.069 DampG=2.000 DampE=1.000 DampFc=2.0000 IDamp=-1.
 RMSDP=6.22D-04 MaxDP=1.66D-02              OVMax= 1.74D-02

 Cycle   2  Pass 0  IDiag  1:
 E= -307.322859035561     Delta-E=       -0.002302861143 Rises=F Damp=F
 DIIS: error= 2.66D-03 at cycle   2 NSaved=   2.
 NSaved= 2 IEnMin= 2 EnMin= -307.322859035561     IErMin= 2 ErrMin= 2.66D-03
 ErrMax= 2.66D-03  0.00D+00 EMaxC= 1.00D-01 BMatC= 1.01D-03 BMatP= 2.31D-03
 IDIUse=3 WtCom= 9.73D-01 WtEn= 2.66D-02
 Coeff-Com:  0.349D+00 0.651D+00
 Coeff-En:   0.000D+00 0.100D+01
 Coeff:      0.340D+00 0.660D+00
 Gap=     0.365 Goal=   None    Shift=    0.000
 RMSDP=2.89D-04 MaxDP=9.32D-03 DE=-2.30D-03 OVMax= 1.06D-02

 Cycle   3  Pass 0  IDiag  1:
 E= -307.323456994149     Delta-E=       -0.000597958588 Rises=F Damp=F
 DIIS: error= 1.22D-03 at cycle   3 NSaved=   3.
 NSaved= 3 IEnMin= 3 EnMin= -307.323456994149     IErMin= 3 ErrMin= 1.22D-03
 ErrMax= 1.22D-03  0.00D+00 EMaxC= 1.00D-01 BMatC= 2.39D-04 BMatP= 1.01D-03
 IDIUse=3 WtCom= 9.88D-01 WtEn= 1.22D-02
 Coeff-Com: -0.501D-01 0.311D+00 0.739D+00
 Coeff-En:   0.000D+00 0.142D+00 0.858D+00
 Coeff:     -0.495D-01 0.309D+00 0.740D+00
 Gap=     0.363 Goal=   None    Shift=    0.000
 RMSDP=1.31D-04 MaxDP=3.65D-03 DE=-5.98D-04 OVMax= 4.35D-03

 Cycle   4  Pass 0  IDiag  1:
 E= -307.323669657678     Delta-E=       -0.000212663529 Rises=F Damp=F
 DIIS: error= 2.07D-04 at cycle   4 NSaved=   4.
 NSaved= 4 IEnMin= 4 EnMin= -307.323669657678     IErMin= 4 ErrMin= 2.07D-04
 ErrMax= 2.07D-04  0.00D+00 EMaxC= 1.00D-01 BMatC= 6.35D-06 BMatP= 2.39D-04
 IDIUse=3 WtCom= 9.98D-01 WtEn= 2.07D-03
 Coeff-Com: -0.294D-01 0.111D-01 0.160D+00 0.858D+00
 Coeff-En:   0.000D+00 0.000D+00 0.000D+00 0.100D+01
 Coeff:     -0.293D-01 0.111D-01 0.160D+00 0.858D+00
 Gap=     0.363 Goal=   None    Shift=    0.000
 RMSDP=3.74D-05 MaxDP=6.27D-04 DE=-2.13D-04 OVMax= 1.31D-03

 Cycle   5  Pass 0  IDiag  1:
 E= -307.323677853145     Delta-E=       -0.000008195468 Rises=F Damp=F
 DIIS: error= 4.86D-05 at cycle   5 NSaved=   5.
 NSaved= 5 IEnMin= 5 EnMin= -307.323677853145     IErMin= 5 ErrMin= 4.86D-05
 ErrMax= 4.86D-05  0.00D+00 EMaxC= 1.00D-01 BMatC= 5.81D-07 BMatP= 6.35D-06
 IDIUse=1 WtCom= 1.00D+00 WtEn= 0.00D+00
 Coeff-Com: -0.479D-02-0.214D-01-0.753D-02 0.222D+00 0.812D+00
 Coeff:     -0.479D-02-0.214D-01-0.753D-02 0.222D+00 0.812D+00
 Gap=     0.362 Goal=   None    Shift=    0.000
 RMSDP=1.37D-05 MaxDP=2.24D-04 DE=-8.20D-06 OVMax= 4.69D-04

 Cycle   6  Pass 0  IDiag  1:
 E= -307.323678825774     Delta-E=       -0.000000972629 Rises=F Damp=F
 DIIS: error= 2.33D-05 at cycle   6 NSaved=   6.
 NSaved= 6 IEnMin= 6 EnMin= -307.323678825774     IErMin= 6 ErrMin= 2.33D-05
 ErrMax= 2.33D-05  0.00D+00 EMaxC= 1.00D-01 BMatC= 1.11D-07 BMatP= 5.81D-07
 IDIUse=1 WtCom= 1.00D+00 WtEn= 0.00D+00
 Coeff-Com:  0.287D-02-0.913D-02-0.268D-01-0.636D-01 0.292D+00 0.805D+00
 Coeff:      0.287D-02-0.913D-02-0.268D-01-0.636D-01 0.292D+00 0.805D+00
 Gap=     0.362 Goal=   None    Shift=    0.000
 RMSDP=5.90D-06 MaxDP=9.50D-05 DE=-9.73D-07 OVMax= 3.03D-04

 Initial convergence to 1.0D-05 achieved.  Increase integral accuracy.
 Cycle   7  Pass 1  IDiag  1:
 E= -307.323628578233     Delta-E=        0.000050247541 Rises=F Damp=F
 DIIS: error= 2.18D-05 at cycle   1 NSaved=   1.
 NSaved= 1 IEnMin= 1 EnMin= -307.323628578233     IErMin= 1 ErrMin= 2.18D-05
 ErrMax= 2.18D-05  0.00D+00 EMaxC= 1.00D-01 BMatC= 1.09D-07 BMatP= 1.09D-07
 IDIUse=1 WtCom= 1.00D+00 WtEn= 0.00D+00
 Coeff-Com:  0.100D+01
 Coeff:      0.100D+01
 Gap=     0.362 Goal=   None    Shift=    0.000
 RMSDP=5.90D-06 MaxDP=9.50D-05 DE= 5.02D-05 OVMax= 9.06D-05

 Cycle   8  Pass 1  IDiag  1:
 E= -307.323628675246     Delta-E=       -0.000000097012 Rises=F Damp=F
 DIIS: error= 7.03D-06 at cycle   2 NSaved=   2.
 NSaved= 2 IEnMin= 2 EnMin= -307.323628675246     IErMin= 2 ErrMin= 7.03D-06
 ErrMax= 7.03D-06  0.00D+00 EMaxC= 1.00D-01 BMatC= 1.12D-08 BMatP= 1.09D-07
 IDIUse=1 WtCom= 1.00D+00 WtEn= 0.00D+00
 Coeff-Com:  0.922D-01 0.908D+00
 Coeff:      0.922D-01 0.908D+00
 Gap=     0.362 Goal=   None    Shift=    0.000
 RMSDP=1.59D-06 MaxDP=2.72D-05 DE=-9.70D-08 OVMax= 7.72D-05

 Cycle   9  Pass 1  IDiag  1:
 E= -307.323628682669     Delta-E=       -0.000000007424 Rises=F Damp=F
 DIIS: error= 9.16D-06 at cycle   3 NSaved=   3.
 NSaved= 3 IEnMin= 3 EnMin= -307.323628682669     IErMin= 2 ErrMin= 7.03D-06
 ErrMax= 9.16D-06  0.00D+00 EMaxC= 1.00D-01 BMatC= 7.48D-09 BMatP= 1.12D-08
 IDIUse=1 WtCom= 1.00D+00 WtEn= 0.00D+00
 Coeff-Com: -0.546D-01 0.452D+00 0.603D+00
 Coeff:     -0.546D-01 0.452D+00 0.603D+00
 Gap=     0.362 Goal=   None    Shift=    0.000
 RMSDP=7.88D-07 MaxDP=1.26D-05 DE=-7.42D-09 OVMax= 3.37D-05

 Cycle  10  Pass 1  IDiag  1:
 E= -307.323628690894     Delta-E=       -0.000000008225 Rises=F Damp=F
 DIIS: error= 1.20D-06 at cycle   4 NSaved=   4.
 NSaved= 4 IEnMin= 4 EnMin= -307.323628690894     IErMin= 4 ErrMin= 1.20D-06
 ErrMax= 1.20D-06  0.00D+00 EMaxC= 1.00D-01 BMatC= 1.81D-10 BMatP= 7.48D-09
 IDIUse=1 WtCom= 1.00D+00 WtEn= 0.00D+00
 Coeff-Com: -0.176D-01 0.681D-01 0.142D+00 0.807D+00
 Coeff:     -0.176D-01 0.681D-01 0.142D+00 0.807D+00
 Gap=     0.362 Goal=   None    Shift=    0.000
 RMSDP=2.30D-07 MaxDP=3.49D-06 DE=-8.22D-09 OVMax= 1.43D-05

 Cycle  11  Pass 1  IDiag  1:
 E= -307.323628691343     Delta-E=       -0.000000000449 Rises=F Damp=F
 DIIS: error= 6.71D-07 at cycle   5 NSaved=   5.
 NSaved= 5 IEnMin= 5 EnMin= -307.323628691343     IErMin= 5 ErrMin= 6.71D-07
 ErrMax= 6.71D-07  0.00D+00 EMaxC= 1.00D-01 BMatC= 4.97D-11 BMatP= 1.81D-10
 IDIUse=1 WtCom= 1.00D+00 WtEn= 0.00D+00
 Coeff-Com:  0.970D-02-0.995D-01-0.126D+00 0.217D+00 0.998D+00
 Coeff:      0.970D-02-0.995D-01-0.126D+00 0.217D+00 0.998D+00
 Gap=     0.362 Goal=   None    Shift=    0.000
 RMSDP=1.84D-07 MaxDP=3.20D-06 DE=-4.49D-10 OVMax= 1.04D-05

 Cycle  12  Pass 1  IDiag  1:
 E= -307.323628691506     Delta-E=       -0.000000000163 Rises=F Damp=F
 DIIS: error= 2.82D-07 at cycle   6 NSaved=   6.
 NSaved= 6 IEnMin= 6 EnMin= -307.323628691506     IErMin= 6 ErrMin= 2.82D-07
 ErrMax= 2.82D-07  0.00D+00 EMaxC= 1.00D-01 BMatC= 8.48D-12 BMatP= 4.97D-11
 IDIUse=1 WtCom= 1.00D+00 WtEn= 0.00D+00
 Coeff-Com:  0.577D-02-0.479D-01-0.676D-01 0.129D-01 0.411D+00 0.686D+00
 Coeff:      0.577D-02-0.479D-01-0.676D-01 0.129D-01 0.411D+00 0.686D+00
 Gap=     0.362 Goal=   None    Shift=    0.000
 RMSDP=4.62D-08 MaxDP=1.11D-06 DE=-1.63D-10 OVMax= 2.79D-06

 Cycle  13  Pass 1  IDiag  1:
 E= -307.323628691524     Delta-E=       -0.000000000018 Rises=F Damp=F
 DIIS: error= 1.01D-07 at cycle   7 NSaved=   7.
 NSaved= 7 IEnMin= 7 EnMin= -307.323628691524     IErMin= 7 ErrMin= 1.01D-07
 ErrMax= 1.01D-07  0.00D+00 EMaxC= 1.00D-01 BMatC= 1.38D-12 BMatP= 8.48D-12
 IDIUse=1 WtCom= 1.00D+00 WtEn= 0.00D+00
 Coeff-Com: -0.292D-03 0.767D-02 0.621D-02-0.522D-01-0.107D+00 0.257D+00
 Coeff-Com:  0.889D+00
 Coeff:     -0.292D-03 0.767D-02 0.621D-02-0.522D-01-0.107D+00 0.257D+00
 Coeff:      0.889D+00
 Gap=     0.362 Goal=   None    Shift=    0.000
 RMSDP=2.58D-08 MaxDP=3.91D-07 DE=-1.82D-11 OVMax= 1.65D-06

 Cycle  14  Pass 1  IDiag  1:
 E= -307.323628691526     Delta-E=       -0.000000000002 Rises=F Damp=F
 DIIS: error= 3.14D-08 at cycle   8 NSaved=   8.
 NSaved= 8 IEnMin= 8 EnMin= -307.323628691526     IErMin= 8 ErrMin= 3.14D-08
 ErrMax= 3.14D-08  0.00D+00 EMaxC= 1.00D-01 BMatC= 3.81D-14 BMatP= 1.38D-12
 IDIUse=1 WtCom= 1.00D+00 WtEn= 0.00D+00
 Coeff-Com: -0.421D-03 0.342D-02 0.480D-02 0.530D-03-0.284D-01-0.523D-01
 Coeff-Com: -0.287D-01 0.110D+01
 Coeff:     -0.421D-03 0.342D-02 0.480D-02 0.530D-03-0.284D-01-0.523D-01
 Coeff:     -0.287D-01 0.110D+01
 Gap=     0.362 Goal=   None    Shift=    0.000
 RMSDP=6.21D-09 MaxDP=9.20D-08 DE=-1.93D-12 OVMax= 3.93D-07

 SCF Done:  E(RwB97XD) =  -307.323628692     A.U. after   14 cycles
            NFock= 14  Conv=0.62D-08     -V/T= 2.0103
 KE= 3.042017545417D+02 PE=-1.252613095587D+03 EE= 3.722417765311D+02
 Leave Link  502 at Tue May 28 16:29:21 2024, MaxMem=   536870912 cpu:              31.2 elap:               8.1
 (Enter /software/gaussian/g16-c01/avx2/g16/l701.exe)
 ... and contract with generalized density number  0.
 Compute integral first derivatives.
 R6Disp: Adding Grimme-D2 dispersion energy 1st derivatives to the gradient.
 Leave Link  701 at Tue May 28 16:29:21 2024, MaxMem=   536870912 cpu:               0.8 elap:               0.2
 (Enter /software/gaussian/g16-c01/avx2/g16/l702.exe)
 L702 exits ... SP integral derivatives will be done elsewhere.
 Leave Link  702 at Tue May 28 16:29:21 2024, MaxMem=   536870912 cpu:               0.1 elap:               0.0
 (Enter /software/gaussian/g16-c01/avx2/g16/l703.exe)
 Integral derivatives from FoFJK, PRISM(SPDF).
 Compute integral first derivatives, UseDBF=F ICtDFT=           0.
 Calling FoFJK, ICntrl=      2127 FMM=F ISym2X=0 I1Cent= 0 IOpClX= 0 NMat=1 NMatS=1 NMatT=0.
 FoFJK:  IHMeth= 1 ICntrl=    2127 DoSepK=T KAlg= 0 I1Cent=           0 FoldK=F
 IRaf=         1 NMat=       1 IRICut=       1 DoRegI=T DoRafI=F ISym2E= 0 IDoP0=0 IntGTp=1.
 FoFCou: FMM=F IPFlag=           0 FMFlag=      100000 FMFlg1=         800
         NFxFlg=           0 DoJE=F BraDBF=F KetDBF=F FulRan=T
         wScrn=  0.000000 ICntrl=      2527 IOpCl=  0 I1Cent=           0 NGrid=           0
         NMat0=    1 NMatS0=      1 NMatT0=    0 NMatD0=    1 NMtDS0=    0 NMtDT0=    0
 Symmetry not used in FoFCou.
 Leave Link  703 at Tue May 28 16:29:24 2024, MaxMem=   536870912 cpu:              11.8 elap:               3.0
 (Enter /software/gaussian/g16-c01/avx2/g16/l716.exe)
 Dipole        =-3.33151495D-01 4.12633486D-01 2.67372848D-01
 -------------------------------------------------------------------
 Center     Atomic                   Forces (Hartrees/Bohr)
 Number     Number              X              Y              Z
 -------------------------------------------------------------------
      1        1           0.092592836   -0.064927190    0.002574082
      2        8          -0.063006003    0.053607860    0.013990537
      3        6          -0.027951327    0.013416142   -0.011870922
      4        6           0.009209289   -0.006788349    0.004083574
      5        6           0.001979280    0.002433145    0.003328567
      6        6           0.000730942   -0.009786900   -0.008094369
      7        1          -0.004921563    0.004625633   -0.001063225
      8        6          -0.009372390    0.010864880   -0.001276778
      9        1          -0.001400168   -0.003639900   -0.004317869
     10        6          -0.005077020   -0.000045831   -0.005516882
     11        1          -0.000576761    0.004761889    0.003747990
     12        1           0.003930098   -0.004702197    0.000020944
     13        1           0.003862788    0.000180819    0.004394350
 -------------------------------------------------------------------
 Cartesian Forces:  Max     0.092592836 RMS     0.023599551
 Leave Link  716 at Tue May 28 16:29:24 2024, MaxMem=   536870912 cpu:               0.1 elap:               0.0
 (Enter /software/gaussian/g16-c01/avx2/g16/l103.exe)

 GradGradGradGradGradGradGradGradGradGradGradGradGradGradGradGradGradGrad
 Berny optimization.
 Using GEDIIS/GDIIS optimizer.
 FormGI is forming the generalized inverse of G from B-inverse, IUseBI=4.
 Internal  Forces:  Max     0.112392752 RMS     0.016025417
 Search for a local minimum.
 Step number   2 out of a maximum of   68
 All quantities printed in internal units (Hartrees-Bohrs-Radians)
 RMS Force = .16025D-01 SwitMx=.10000D-02 MixMth= 1
 Mixed Optimization -- RFO/linear search
 Update second derivatives using D2CorX and points    1    2
 DE= -4.00D-02 DEPred=-3.45D-02 R= 1.16D+00
 TightC=F SS=  1.41D+00  RLast= 3.00D-01 DXNew= 5.0454D-01 9.0043D-01
 Trust test= 1.16D+00 RLast= 3.00D-01 DXMaxT set to 5.05D-01
 ITU=  1  0
 Use linear search instead of GDIIS.
 Linear search step of   0.529 exceeds DXMaxT=   0.505 but not scaled.
 Quartic linear search produced a step of  1.76176.
 Iteration  1 RMS(Cart)=  0.07378239 RMS(Int)=  0.03904525
 Iteration  2 RMS(Cart)=  0.02342949 RMS(Int)=  0.01274314
 Iteration  3 RMS(Cart)=  0.01157971 RMS(Int)=  0.00006653
 Iteration  4 RMS(Cart)=  0.00003484 RMS(Int)=  0.00006295
 Iteration  5 RMS(Cart)=  0.00000000 RMS(Int)=  0.00006295
 ITry= 1 IFail=0 DXMaxC= 5.61D-01 DCOld= 1.00D+10 DXMaxT= 5.05D-01 DXLimC= 3.00D+00 Rises=F
 Variable       Old X    -DE/DX   Delta X   Delta X   Delta X     New X
                                 (Linear)    (Quad)   (Total)
    R1        2.27380  -0.11239  -0.46679   0.00000  -0.46679   1.80701
    R2        2.64297  -0.03126  -0.10455   0.00000  -0.10455   2.53842
    R3        2.64069  -0.00319  -0.01334   0.00000  -0.01333   2.62735
    R4        2.63543  -0.00374  -0.02262   0.00000  -0.02260   2.61282
    R5        2.63820  -0.00446  -0.01773   0.00000  -0.01773   2.62047
    R6        2.03636   0.00681   0.02528   0.00000   0.02528   2.06164
    R7        2.63865  -0.00482  -0.01694   0.00000  -0.01693   2.62172
    R8        2.03536   0.00556   0.02352   0.00000   0.02352   2.05888
    R9        2.63964  -0.00437  -0.01520   0.00000  -0.01521   2.62443
   R10        2.03576   0.00606   0.02423   0.00000   0.02423   2.05999
   R11        2.64056  -0.00381  -0.01358   0.00000  -0.01359   2.62697
   R12        2.03529   0.00610   0.02340   0.00000   0.02340   2.05869
   R13        2.03572   0.00585   0.02416   0.00000   0.02416   2.05989
    A1        2.00838  -0.02882  -0.20034   0.00000  -0.20034   1.80804
    A2        2.11689   0.00800   0.03962   0.00000   0.03960   2.15649
    A3        2.06357  -0.00882  -0.05430   0.00000  -0.05432   2.00925
    A4        2.10272   0.00082   0.01467   0.00000   0.01469   2.11741
    A5        2.09057  -0.00077  -0.00674   0.00000  -0.00674   2.08383
    A6        2.09342  -0.00018  -0.00173   0.00000  -0.00173   2.09169
    A7        2.09920   0.00095   0.00847   0.00000   0.00846   2.10766
    A8        2.08528  -0.00158  -0.01606   0.00000  -0.01604   2.06924
    A9        2.09456  -0.00095   0.00029   0.00000   0.00028   2.09483
   A10        2.10335   0.00253   0.01577   0.00000   0.01576   2.11911
   A11        2.09548   0.00099   0.00191   0.00000   0.00189   2.09738
   A12        2.09222  -0.00103  -0.00384   0.00000  -0.00383   2.08839
   A13        2.09549   0.00004   0.00192   0.00000   0.00193   2.09742
   A14        2.10153   0.00197   0.01257   0.00000   0.01256   2.11409
   A15        2.08727  -0.00164  -0.01255   0.00000  -0.01255   2.07472
   A16        2.09439  -0.00033  -0.00002   0.00000  -0.00002   2.09437
   A17        2.09079  -0.00142  -0.00635   0.00000  -0.00638   2.08441
   A18        2.09608   0.00070   0.00298   0.00000   0.00299   2.09907
   A19        2.09631   0.00073   0.00338   0.00000   0.00339   2.09970
    D1       -0.21835   0.00082   0.00273   0.00000   0.00278  -0.21558
    D2        2.92664   0.00129   0.00871   0.00000   0.00867   2.93530
    D3       -3.13817   0.00042   0.00604   0.00000   0.00627  -3.13189
    D4        0.00311   0.00037   0.00548   0.00000   0.00567   0.00878
    D5       -0.00004  -0.00007  -0.00008   0.00000  -0.00009  -0.00014
    D6        3.14123  -0.00012  -0.00064   0.00000  -0.00069   3.14054
    D7        3.13717  -0.00052  -0.00779   0.00000  -0.00754   3.12963
    D8       -0.00342  -0.00045  -0.00602   0.00000  -0.00584  -0.00926
    D9       -0.00105  -0.00007  -0.00185   0.00000  -0.00185  -0.00291
   D10        3.14154  -0.00001  -0.00009   0.00000  -0.00015   3.14139
   D11        0.00068   0.00013   0.00120   0.00000   0.00124   0.00192
   D12       -3.14141   0.00004   0.00033   0.00000   0.00033  -3.14108
   D13       -3.14059   0.00018   0.00176   0.00000   0.00185  -3.13874
   D14        0.00050   0.00009   0.00089   0.00000   0.00093   0.00144
   D15        0.00153   0.00016   0.00269   0.00000   0.00272   0.00425
   D16       -3.14112   0.00001   0.00084   0.00000   0.00084  -3.14028
   D17       -3.14108   0.00009   0.00091   0.00000   0.00099  -3.14009
   D18       -0.00053  -0.00005  -0.00093   0.00000  -0.00090  -0.00143
   D19       -0.00021  -0.00004  -0.00037   0.00000  -0.00040  -0.00062
   D20        3.14146  -0.00003  -0.00023   0.00000  -0.00027   3.14119
   D21       -3.14131   0.00005   0.00050   0.00000   0.00052  -3.14079
   D22        0.00036   0.00006   0.00063   0.00000   0.00065   0.00101
   D23       -0.00090  -0.00011  -0.00159   0.00000  -0.00163  -0.00252
   D24        3.14062  -0.00012  -0.00172   0.00000  -0.00176   3.13886
   D25       -3.14144   0.00004   0.00027   0.00000   0.00028  -3.14115
   D26        0.00008   0.00003   0.00013   0.00000   0.00015   0.00023
         Item               Value     Threshold  Converged?
 Maximum Force            0.112393     0.000450     NO 
 RMS     Force            0.016025     0.000300     NO 
 Maximum Displacement     0.560724     0.001800     NO 
 RMS     Displacement     0.094275     0.001200     NO 
 Predicted change in Energy=-5.352345D-02
 Lowest energy point so far.  Saving SCF results.
 GradGradGradGradGradGradGradGradGradGradGradGradGradGradGradGradGradGrad

 Leave Link  103 at Tue May 28 16:29:24 2024, MaxMem=   536870912 cpu:               0.1 elap:               0.0
 (Enter /software/gaussian/g16-c01/avx2/g16/l202.exe)
                          Input orientation:                          
 ---------------------------------------------------------------------
 Center     Atomic      Atomic             Coordinates (Angstroms)
 Number     Number       Type             X           Y           Z
 ---------------------------------------------------------------------
      1          1           0        4.499883    0.532463    0.351678
      2          8           0        5.176215   -0.113900    0.153778
      3          6           0        6.031846   -0.000791    1.183091
      4          6           0        5.999755    1.045854    2.097715
      5          6           0        6.976610   -1.006187    1.274263
      6          6           0        6.933322    1.083167    3.122398
      7          1           0        5.244251    1.827114    2.002489
      8          6           0        7.905685   -0.951943    2.303159
      9          1           0        6.982309   -1.816598    0.546087
     10          6           0        7.891823    0.083963    3.230077
     11          1           0        6.911767    1.901576    3.842161
     12          1           0        8.653171   -1.740814    2.379085
     13          1           0        8.626663    0.111929    4.034704
 ---------------------------------------------------------------------
                    Distance matrix (angstroms):
                    1          2          3          4          5
     1  H    0.000000
     2  O    0.956229   0.000000
     3  C    1.822777   1.343273   0.000000
     4  C    2.358354   2.408763   1.390336   0.000000
     5  C    3.058232   2.300670   1.382647   2.417269   0.000000
     6  C    3.728510   3.651451   2.397610   1.386691   2.789781
     7  H    2.226069   2.681398   2.152430   1.090973   3.399849
     8  C    4.196573   3.573816   2.381284   2.768748   1.387353
     9  H    3.423203   2.512979   2.146231   3.400969   1.089513
    10  C    4.471196   4.108198   2.767101   2.405701   2.418936
    11  H    4.458153   4.547357   3.385841   2.146420   3.879870
    12  H    5.150531   4.437124   3.365922   3.858148   2.138029
    13  H    5.547237   5.197901   3.857134   3.394817   3.404834
                    6          7          8          9         10
     6  C    0.000000
     7  H    2.158845   0.000000
     8  C    2.399649   3.859636   0.000000
     9  H    3.879229   4.291688   2.165076   0.000000
    10  C    1.388787   3.399292   1.390133   3.412206   0.000000
    11  H    1.090100   2.484059   3.391014   4.969296   2.153805
    12  H    3.388992   4.949007   1.089412   2.481412   2.152591
    13  H    2.154764   4.302612   2.156359   4.312026   1.090044
                   11         12         13
    11  H    0.000000
    12  H    4.294192   0.000000
    13  H    2.486116   2.484841   0.000000
 Symmetry turned off by external request.
 Stoichiometry    C6H6O
 Framework group  C1[X(C6H6O)]
 Deg. of freedom    33
 Full point group                 C1      NOp   1
 Rotational constants (GHZ):           5.6813132           2.6877108           1.8250064
 Leave Link  202 at Tue May 28 16:29:24 2024, MaxMem=   536870912 cpu:               0.0 elap:               0.0
 (Enter /software/gaussian/g16-c01/avx2/g16/l301.exe)
 Standard basis: 6-31G(d) (6D, 7F)
 Ernie: Thresh=  0.10000D-02 Tol=  0.10000D-05 Strict=F.
   117 basis functions,   220 primitive gaussians,   117 cartesian basis functions
    25 alpha electrons       25 beta electrons
       nuclear repulsion energy       273.1426405218 Hartrees.
 IExCor= 4639 DFT=T Ex+Corr=wB97XD ExCW=0 ScaHFX=  1.000000
 ScaDFX=  1.000000  1.000000  1.000000  1.000000 ScalE2=  1.000000  1.000000
 IRadAn=      5 IRanWt=     -1 IRanGd=            0 ICorTp=0 IEmpDi=121
 HFx  wShort=  0.000000 wLong=  0.200000 cFull=  0.222036 cShort=  0.000000 cLong=  0.777964
 DFx  wShort=  0.000000 wLong=  0.200000 cFull=  0.000000 cShort=  0.000000 cLong=  1.000000
 NAtoms=   13 NActive=   13 NUniq=   13 SFac= 1.00D+00 NAtFMM=   60 NAOKFM=F Big=F
 Integral buffers will be    131072 words long.
 Raffenetti 2 integral format.
 Two-electron integral symmetry is turned off.
 R6Disp:  Grimme-D2 Dispersion energy=       -0.0048552924 Hartrees.
 Nuclear repulsion after empirical dispersion term =      273.1377852294 Hartrees.
 Leave Link  301 at Tue May 28 16:29:25 2024, MaxMem=   536870912 cpu:               0.2 elap:               0.1
 (Enter /software/gaussian/g16-c01/avx2/g16/l302.exe)
 NPDir=0 NMtPBC=     1 NCelOv=     1 NCel=       1 NClECP=     1 NCelD=      1
         NCelK=      1 NCelE2=     1 NClLst=     1 CellRange=     0.0.
 One-electron integrals computed using PRISM.
 NBasis=   117 RedAO= T EigKep=  4.67D-04  NBF=   117
 NBsUse=   117 1.00D-06 EigRej= -1.00D+00 NBFU=   117
 Precomputing XC quadrature grid using
 IXCGrd= 4 IRadAn=           5 IRanWt=          -1 IRanGd=           0 AccXCQ= 0.00D+00.
 Generated NRdTot=       0 NPtTot=           0 NUsed=           0 NTot=          32
 NSgBfM=   117   117   117   117   117 MxSgAt=    13 MxSgA2=    13.
 Leave Link  302 at Tue May 28 16:29:25 2024, MaxMem=   536870912 cpu:               1.3 elap:               0.4
 (Enter /software/gaussian/g16-c01/avx2/g16/l303.exe)
 DipDrv:  MaxL=1.
 Leave Link  303 at Tue May 28 16:29:25 2024, MaxMem=   536870912 cpu:               0.1 elap:               0.0
 (Enter /software/gaussian/g16-c01/avx2/g16/l401.exe)
 Initial guess from the checkpoint file:  "geometry.chk"
 B after Tr=    -0.024463   -0.002807   -0.005640
         Rot=    1.000000    0.000488   -0.000050   -0.000410 Ang=   0.07 deg.
 Guess basis will be translated and rotated to current coordinates.
 JPrj=2 DoOrth=T DoCkMO=T.
 Generating alternative initial guess.
 ExpMin= 1.61D-01 ExpMax= 5.48D+03 ExpMxC= 8.25D+02 IAcc=3 IRadAn=         5 AccDes= 0.00D+00
 Harris functional with IExCor= 4639 and IRadAn=       5 diagonalized for initial guess.
 HarFok:  IExCor= 4639 AccDes= 0.00D+00 IRadAn=         5 IDoV= 1 UseB2=F ITyADJ=14
 ICtDFT=  3500011 ScaDFX=  1.000000  1.000000  1.000000  1.000000
 FoFCou: FMM=F IPFlag=           0 FMFlag=      100000 FMFlg1=           0
         NFxFlg=           0 DoJE=T BraDBF=F KetDBF=T FulRan=T
         wScrn=  0.000000 ICntrl=       500 IOpCl=  0 I1Cent=   200000004 NGrid=           0
         NMat0=    1 NMatS0=      1 NMatT0=    0 NMatD0=    1 NMtDS0=    0 NMtDT0=    0
 Symmetry not used in FoFCou.
 Harris En= -294.048013951347    
 Leave Link  401 at Tue May 28 16:29:26 2024, MaxMem=   536870912 cpu:               3.4 elap:               0.9
 (Enter /software/gaussian/g16-c01/avx2/g16/l502.exe)
 Keep R1 ints in memory in canonical form, NReq=52253788.
 FoFCou: FMM=F IPFlag=           0 FMFlag=           0 FMFlg1=           0
         NFxFlg=           0 DoJE=F BraDBF=F KetDBF=F FulRan=T
         wScrn=  0.000000 ICntrl=       600 IOpCl=  0 I1Cent=           0 NGrid=           0
         NMat0=    1 NMatS0=   6903 NMatT0=    0 NMatD0=    1 NMtDS0=    0 NMtDT0=    0
 Symmetry not used in FoFCou.
 Two-electron integral symmetry not used.
 Closed shell SCF:
 Using DIIS extrapolation, IDIIS=  1040.
 NGot=   536870912 LenX=   489183093 LenY=   489168963
 Requested convergence on RMS density matrix=1.00D-08 within 128 cycles.
 Requested convergence on MAX density matrix=1.00D-06.
 Requested convergence on             energy=1.00D-06.
 No special actions if energy rises.
 Integral accuracy reduced to 1.0D-05 until final iterations.

 Cycle   1  Pass 0  IDiag  1:
[...]
   A13        2.09739  -0.00000  -0.00001  -0.00001  -0.00002   2.09737
   A14        2.10784  -0.00001   0.00000  -0.00001  -0.00001   2.10783
   A15        2.08142   0.00000   0.00000  -0.00001  -0.00001   2.08141
   A16        2.09393   0.00000  -0.00000   0.00002   0.00002   2.09395
   A17        2.08129   0.00001   0.00001   0.00006   0.00007   2.08135
   A18        2.10087  -0.00001  -0.00000  -0.00007  -0.00007   2.10080
   A19        2.10103   0.00000  -0.00000   0.00001   0.00001   2.10103
    D1        0.00069  -0.00000  -0.00028  -0.00004  -0.00032   0.00037
    D2       -3.14113   0.00000  -0.00016   0.00001  -0.00015  -3.14127
    D3        3.14142   0.00000   0.00008   0.00009   0.00017   3.14159
    D4       -0.00030   0.00001   0.00011   0.00009   0.00020  -0.00010
    D5        0.00007  -0.00000  -0.00005   0.00004  -0.00001   0.00005
    D6        3.14153  -0.00000  -0.00002   0.00004   0.00002   3.14155
    D7       -3.14150  -0.00000  -0.00013   0.00008  -0.00005  -3.14154
    D8        0.00011  -0.00000  -0.00008  -0.00003  -0.00011  -0.00001
    D9       -0.00012   0.00000  -0.00001   0.00013   0.00013   0.00000
   D10        3.14148   0.00000   0.00004   0.00002   0.00006   3.14154
   D11        0.00004  -0.00000   0.00006  -0.00019  -0.00012  -0.00008
   D12        3.14155  -0.00000   0.00001  -0.00005  -0.00004   3.14150
   D13       -3.14142  -0.00000   0.00003  -0.00019  -0.00016  -3.14158
   D14        0.00009  -0.00000  -0.00002  -0.00006  -0.00008   0.00001
   D15        0.00008  -0.00000   0.00004  -0.00015  -0.00011  -0.00003
   D16       -3.14154  -0.00000  -0.00001  -0.00010  -0.00011   3.14153
   D17       -3.14153  -0.00000  -0.00000  -0.00003  -0.00003  -3.14156
   D18        0.00004  -0.00000  -0.00006   0.00002  -0.00004   0.00000
   D19       -0.00009   0.00000  -0.00003   0.00017   0.00014   0.00006
   D20        3.14149   0.00000  -0.00001   0.00010   0.00008   3.14158
   D21        3.14159   0.00000   0.00003   0.00004   0.00006  -3.14153
   D22       -0.00001   0.00000   0.00004  -0.00004   0.00000  -0.00001
   D23        0.00003  -0.00000  -0.00003  -0.00000  -0.00003  -0.00000
   D24       -3.14155   0.00000  -0.00004   0.00007   0.00003  -3.14152
   D25       -3.14154  -0.00000   0.00003  -0.00005  -0.00003  -3.14156
   D26        0.00007   0.00000   0.00001   0.00002   0.00003   0.00010
         Item               Value     Threshold  Converged?
 Maximum Force            0.000073     0.000450     YES
 RMS     Force            0.000017     0.000300     YES
 Maximum Displacement     0.000283     0.001800     YES
 RMS     Displacement     0.000105     0.001200     YES
 Predicted change in Energy=-3.159657D-08
 Optimization completed.
    -- Stationary point found.
                           ----------------------------
                           !   Optimized Parameters   !
                           ! (Angstroms and Degrees)  !
 --------------------------                            --------------------------
 ! Name  Definition              Value          Derivative Info.                !
 --------------------------------------------------------------------------------
 ! R1    R(1,2)                  0.9645         -DE/DX =    0.0                 !
 ! R2    R(2,3)                  1.3609         -DE/DX =    0.0001              !
 ! R3    R(3,4)                  1.3949         -DE/DX =    0.0                 !
 ! R4    R(3,5)                  1.3955         -DE/DX =    0.0                 !
 ! R5    R(4,6)                  1.3924         -DE/DX =    0.0                 !
 ! R6    R(4,7)                  1.0882         -DE/DX =    0.0                 !
 ! R7    R(5,8)                  1.3887         -DE/DX =    0.0                 !
 ! R8    R(5,9)                  1.085          -DE/DX =    0.0                 !
 ! R9    R(6,10)                 1.3907         -DE/DX =    0.0                 !
 ! R10   R(6,11)                 1.0861         -DE/DX =    0.0                 !
 ! R11   R(8,10)                 1.3943         -DE/DX =    0.0                 !
 ! R12   R(8,12)                 1.0861         -DE/DX =    0.0                 !
 ! R13   R(10,13)                1.0852         -DE/DX =    0.0                 !
 ! A1    A(1,2,3)              109.1114         -DE/DX =    0.0                 !
 ! A2    A(2,3,4)              122.6284         -DE/DX =    0.0                 !
 ! A3    A(2,3,5)              117.3254         -DE/DX =    0.0                 !
 ! A4    A(4,3,5)              120.0463         -DE/DX =    0.0                 !
 ! A5    A(3,4,6)              119.7427         -DE/DX =    0.0                 !
 ! A6    A(3,4,7)              120.1            -DE/DX =    0.0                 !
 ! A7    A(6,4,7)              120.1573         -DE/DX =    0.0                 !
 ! A8    A(3,5,8)              119.6168         -DE/DX =    0.0                 !
 ! A9    A(3,5,9)              118.8578         -DE/DX =    0.0                 !
 ! A10   A(8,5,9)              121.5254         -DE/DX =    0.0                 !
 ! A11   A(4,6,10)             120.575          -DE/DX =    0.0                 !
 ! A12   A(4,6,11)             119.2532         -DE/DX =    0.0                 !
 ! A13   A(10,6,11)            120.1718         -DE/DX =    0.0                 !
 ! A14   A(5,8,10)             120.7703         -DE/DX =    0.0                 !
 ! A15   A(5,8,12)             119.2565         -DE/DX =    0.0                 !
 ! A16   A(10,8,12)            119.9731         -DE/DX =    0.0                 !
 ! A17   A(6,10,8)             119.2489         -DE/DX =    0.0                 !
 ! A18   A(6,10,13)            120.3711         -DE/DX =    0.0                 !
 ! A19   A(8,10,13)            120.38           -DE/DX =    0.0                 !
 ! D1    D(1,2,3,4)              0.0398         -DE/DX =    0.0                 !
 ! D2    D(1,2,3,5)           -179.9733         -DE/DX =    0.0                 !
 ! D3    D(2,3,4,6)            179.9903         -DE/DX =    0.0                 !
 ! D4    D(2,3,4,7)             -0.0173         -DE/DX =    0.0                 !
 ! D5    D(5,3,4,6)              0.0038         -DE/DX =    0.0                 !
 ! D6    D(5,3,4,7)            179.9961         -DE/DX =    0.0                 !
 ! D7    D(2,3,5,8)           -179.9944         -DE/DX =    0.0                 !
 ! D8    D(2,3,5,9)              0.0062         -DE/DX =    0.0                 !
 ! D9    D(4,3,5,8)             -0.0072         -DE/DX =    0.0                 !
 ! D10   D(4,3,5,9)            179.9935         -DE/DX =    0.0                 !
 ! D11   D(3,4,6,10)             0.0024         -DE/DX =    0.0                 !
 ! D12   D(3,4,6,11)           179.9975         -DE/DX =    0.0                 !
 ! D13   D(7,4,6,10)          -179.99           -DE/DX =    0.0                 !
 ! D14   D(7,4,6,11)             0.0051         -DE/DX =    0.0                 !
 ! D15   D(3,5,8,10)             0.0045         -DE/DX =    0.0                 !
 ! D16   D(3,5,8,12)           180.0029         -DE/DX =    0.0                 !
 ! D17   D(9,5,8,10)          -179.9962         -DE/DX =    0.0                 !
 ! D18   D(9,5,8,12)             0.0022         -DE/DX =    0.0                 !
 ! D19   D(4,6,10,8)            -0.005          -DE/DX =    0.0                 !
 ! D20   D(4,6,10,13)          179.9943         -DE/DX =    0.0                 !
 ! D21   D(11,6,10,8)         -180.0001         -DE/DX =    0.0                 !
 ! D22   D(11,6,10,13)          -0.0008         -DE/DX =    0.0                 !
 ! D23   D(5,8,10,6)             0.0016         -DE/DX =    0.0                 !
 ! D24   D(5,8,10,13)         -179.9978         -DE/DX =    0.0                 !
 ! D25   D(12,8,10,6)         -179.9968         -DE/DX =    0.0                 !
 ! D26   D(12,8,10,13)           0.0039         -DE/DX =    0.0                 !
 --------------------------------------------------------------------------------
 Lowest energy point so far.  Saving SCF results.
 Largest change from initial coordinates is atom    1       0.039 Angstoms.
 GradGradGradGradGradGradGradGradGradGradGradGradGradGradGradGradGradGrad

 Leave Link  103 at Tue May 28 16:30:46 2024, MaxMem=   536870912 cpu:               0.1 elap:               0.0
 (Enter /software/gaussian/g16-c01/avx2/g16/l202.exe)
                          Input orientation:                          
 ---------------------------------------------------------------------
 Center     Atomic      Atomic             Coordinates (Angstroms)
 Number     Number       Type             X           Y           Z
 ---------------------------------------------------------------------
      1          1           0        4.500426    0.618481    0.218363
      2          8           0        5.112110   -0.126020    0.176571
      3          6           0        6.011820   -0.021057    1.192281
      4          6           0        5.989125    1.027649    2.111762
      5          6           0        6.983845   -1.017350    1.292564
      6          6           0        6.939331    1.075676    3.128346
      7          1           0        5.231566    1.805060    2.034343
      8          6           0        7.925697   -0.957224    2.311343
      9          1           0        6.983532   -1.824177    0.567129
     10          6           0        7.911435    0.086955    3.235298
     11          1           0        6.914307    1.895844    3.839927
     12          1           0        8.679613   -1.735709    2.383880
     13          1           0        8.650493    0.127704    4.028878
 ---------------------------------------------------------------------
                    Distance matrix (angstroms):
                    1          2          3          4          5
     1  H    0.000000
     2  O    0.964461   0.000000
     3  C    1.908360   1.360942   0.000000
     4  C    2.443073   2.417659   1.394900   0.000000
     5  C    3.161838   2.354422   1.395524   2.417142   0.000000
     6  C    3.824302   3.673662   2.410695   1.392351   2.784392
     7  H    2.289174   2.682286   2.156982   1.088236   3.403927
     8  C    4.312296   3.628282   2.406581   2.780263   1.388745
     9  H    3.500575   2.557048   2.141560   3.392292   1.085000
    10  C    4.584691   4.151794   2.791795   2.417129   2.419530
    11  H    4.535879   4.555878   3.391021   2.143893   3.870477
    12  H    5.262820   4.493372   3.387781   3.866383   2.140710
    13  H    5.655434   5.236869   3.876984   3.401192   3.402393
                    6          7          8          9         10
     6  C    0.000000
     7  H    2.155297   0.000000
     8  C    2.402727   3.868499   0.000000
     9  H    3.869229   4.288760   2.163693   0.000000
    10  C    1.390681   3.402334   1.394348   3.410653   0.000000
    11  H    1.086116   2.469816   3.391088   4.955255   2.152190
    12  H    3.389203   4.954619   1.086135   2.486987   2.153396
    13  H    2.153528   4.298925   2.156924   4.309560   1.085190
                   11         12         13
    11  H    0.000000
    12  H    4.292383   0.000000
    13  H    2.485229   2.485794   0.000000
 Symmetry turned off by external request.
 Stoichiometry    C6H6O
 Framework group  C1[X(C6H6O)]
 Deg. of freedom    33
 Full point group                 C1      NOp   1
 Rotational constants (GHZ):           5.6778651           2.6307487           1.7977772
 Leave Link  202 at Tue May 28 16:30:47 2024, MaxMem=   536870912 cpu:               0.0 elap:               0.0
 (Enter /software/gaussian/g16-c01/avx2/g16/l601.exe)
 Copying SCF densities to generalized density rwf, IOpCl= 0 IROHF=0.

 **********************************************************************

            Population analysis using the SCF Density.

 **********************************************************************

 Alpha  occ. eigenvalues --  -19.30043 -10.36027 -10.30289 -10.30083 -10.29953
 Alpha  occ. eigenvalues --  -10.29297 -10.29218  -1.16271  -0.94830  -0.84496
 Alpha  occ. eigenvalues --   -0.83303  -0.71593  -0.69231  -0.63246  -0.58477
 Alpha  occ. eigenvalues --   -0.55058  -0.52051  -0.50500  -0.49540  -0.47112
 Alpha  occ. eigenvalues --   -0.43914  -0.41944  -0.41684  -0.32595  -0.29348
 Alpha virt. eigenvalues --    0.07218   0.08867   0.15992   0.17615   0.23119
 Alpha virt. eigenvalues --    0.24340   0.25681   0.27714   0.27798   0.32936
 Alpha virt. eigenvalues --    0.38321   0.38743   0.42712   0.43926   0.56651
 Alpha virt. eigenvalues --    0.60308   0.61225   0.63313   0.65943   0.68627
 Alpha virt. eigenvalues --    0.68827   0.69391   0.70296   0.70870   0.71089
 Alpha virt. eigenvalues --    0.73321   0.75650   0.76699   0.84875   0.85068
 Alpha virt. eigenvalues --    0.93475   0.93644   0.94876   0.96204   0.99200
 Alpha virt. eigenvalues --    1.02360   1.02859   1.04883   1.04972   1.08341
 Alpha virt. eigenvalues --    1.13000   1.18973   1.20522   1.26696   1.29581
 Alpha virt. eigenvalues --    1.33228   1.36313   1.43898   1.46714   1.52763
 Alpha virt. eigenvalues --    1.53794   1.55312   1.57752   1.59677   1.76637
 Alpha virt. eigenvalues --    1.82114   1.85935   1.88274   1.94264   1.99126
 Alpha virt. eigenvalues --    2.02024   2.06453   2.06662   2.06751   2.16832
 Alpha virt. eigenvalues --    2.21057   2.22506   2.23525   2.33670   2.34641
 Alpha virt. eigenvalues --    2.39885   2.40122   2.49640   2.59008   2.63180
 Alpha virt. eigenvalues --    2.65800   2.74442   2.75177   2.81671   2.81979
 Alpha virt. eigenvalues --    2.84017   2.93328   3.04303   3.19933   3.51957
 Alpha virt. eigenvalues --    4.03924   4.19621   4.22032   4.28516   4.43155
 Alpha virt. eigenvalues --    4.51093   4.82984
          Condensed to atoms (all electrons):
               1          2          3          4          5          6
     1  H    0.346404   0.252089  -0.031318  -0.002680   0.005823   0.000557
     2  O    0.252089   8.228703   0.288250  -0.059658  -0.052264   0.004219
     3  C   -0.031318   0.288250   4.440162   0.527400   0.560710  -0.012379
     4  C   -0.002680  -0.059658   0.527400   5.081808  -0.072835   0.512436
     5  C    0.005823  -0.052264   0.560710  -0.072835   4.956349  -0.033385
     6  C    0.000557   0.004219  -0.012379   0.512436  -0.033385   4.861361
     7  H    0.005905  -0.004587  -0.043157   0.358680   0.004360  -0.030732
     8  C   -0.000191   0.002718  -0.021634  -0.035283   0.548987  -0.033978
     9  H   -0.000244  -0.000999  -0.033768   0.005694   0.360264  -0.000008
    10  C   -0.000008   0.000214  -0.035041  -0.048078  -0.044563   0.565452
    11  H   -0.000012  -0.000048   0.002490  -0.033943   0.000572   0.366620
    12  H    0.000004  -0.000053   0.003501   0.000502  -0.036573   0.004061
    13  H   -0.000001   0.000001   0.000587   0.004127   0.003657  -0.037834
               7          8          9         10         11         12
     1  H    0.005905  -0.000191  -0.000244  -0.000008  -0.000012   0.000004
     2  O   -0.004587   0.002718  -0.000999   0.000214  -0.000048  -0.000053
     3  C   -0.043157  -0.021634  -0.033768  -0.035041   0.002490   0.003501
     4  C    0.358680  -0.035283   0.005694  -0.048078  -0.033943   0.000502
     5  C    0.004360   0.548987   0.360264  -0.044563   0.000572  -0.036573
     6  C   -0.030732  -0.033978  -0.000008   0.565452   0.366620   0.004061
     7  H    0.556951   0.000313  -0.000137   0.003850  -0.004560   0.000011
     8  C    0.000313   4.855199  -0.036955   0.553430   0.003883   0.369371
     9  H   -0.000137  -0.036955   0.528863   0.003971   0.000012  -0.004648
    10  C    0.003850   0.553430   0.003971   4.880373  -0.036205  -0.038117
    11  H   -0.004560   0.003883   0.000012  -0.036205   0.537847  -0.000155
    12  H    0.000011   0.369371  -0.004648  -0.038117  -0.000155   0.537856
    13  H   -0.000140  -0.037706  -0.000122   0.370776  -0.004021  -0.004068
              13
     1  H   -0.000001
     2  O    0.000001
     3  C    0.000587
     4  C    0.004127
     5  C    0.003657
     6  C   -0.037834
     7  H   -0.000140
     8  C   -0.037706
     9  H   -0.000122
    10  C    0.370776
    11  H   -0.004021
    12  H   -0.004068
    13  H    0.541294
 Mulliken charges:
               1
     1  H    0.423670
     2  O   -0.658587
     3  C    0.354198
     4  C   -0.238172
     5  C   -0.201104
     6  C   -0.166390
     7  H    0.153243
     8  C   -0.168155
     9  H    0.178077
    10  C   -0.176055
    11  H    0.167521
    12  H    0.168306
    13  H    0.163448
 Sum of Mulliken charges =  -0.00000
 Mulliken charges with hydrogens summed into heavy atoms:
               1
     2  O   -0.234917
     3  C    0.354198
     4  C   -0.084929
     5  C   -0.023027
     6  C    0.001131
     8  C    0.000151
    10  C   -0.012606
 Electronic spatial extent (au):  <R**2>=           9190.8429
 Charge=             -0.0000 electrons
 Dipole moment (field-independent basis, Debye):
    X=             -0.5775    Y=              1.1738    Z=              0.4618  Tot=              1.3873
 Quadrupole moment (field-independent basis, Debye-Ang):
   XX=            -43.9750   YY=            -37.4281   ZZ=            -39.2515
   XY=              2.2166   XZ=              4.7690   YZ=              2.2837
 Traceless Quadrupole moment (field-independent basis, Debye-Ang):
   XX=             -3.7568   YY=              2.7901   ZZ=              0.9667
   XY=              2.2166   XZ=              4.7690   YZ=              2.2837
 Octapole moment (field-independent basis, Debye-Ang**2):
  XXX=           -816.5530  YYY=             -2.5351  ZZZ=           -228.3602  XYY=           -252.3239
  XXY=            -18.4929  XXZ=            -29.6921  XZZ=           -251.7892  YZZ=              9.7527
  YYZ=            -73.6970  XYZ=             10.1796
 Hexadecapole moment (field-independent basis, Debye-Ang**3):
 XXXX=         -11003.9292 YYYY=           -215.9204 ZZZZ=          -1201.2911 XXXY=           -302.4031
 XXXZ=          -1194.2055 YYYX=             11.4327 YYYZ=            -38.7852 ZZZX=          -1581.6813
 ZZZY=             -3.1447 XXYY=          -1779.3703 XXZZ=          -1849.7462 YYZZ=           -226.8743
 XXYZ=             13.1594 YYXZ=           -527.4422 ZZXY=             71.1156
 N-N= 2.715583863844D+02 E-N=-1.258134449735D+03  KE= 3.045613678981D+02
 No NMR shielding tensors so no spin-rotation constants.
 Leave Link  601 at Tue May 28 16:30:47 2024, MaxMem=   536870912 cpu:               0.8 elap:               0.2
 (Enter /software/gaussian/g16-c01/avx2/g16/l9999.exe)
 Unable to Open any file for archive entry.
 1\1\GINC-BHD0001\FOpt\RwB97XD\6-31G(d)\C6H6O1\BWEIGHT\28-May-2024\0\\#
 P OPT wB97XD/6-31G* NoSymm\\CHOL Geometry (Unoptimized)\\0,1\H,4.50042
 60371,0.6184810233,0.2183632208\O,5.1121095981,-0.126019681,0.17657077
 8\C,6.0118202959,-0.0210574359,1.1922807939\C,5.9891251471,1.027648839
 3,2.1117624207\C,6.9838454384,-1.017349638,1.2925636227\C,6.9393311131
 ,1.0756760348,3.128346402\H,5.2315658018,1.8050600805,2.0343429607\C,7
 .9256971245,-0.9572242387,2.3113434354\H,6.9835319363,-1.8241765991,0.
 567128665\C,7.911434924,0.0869548317,3.2352977696\H,6.914306502,1.8958
 436766,3.8399271683\H,8.6796132095,-1.7357088025,2.383880016\H,8.65049
 2702,0.1277041192,4.0288780171\\Version=ES64L-G16RevC.01\HF=-307.36027
 04\RMSD=7.545e-09\RMSF=3.427e-05\Dipole=-0.2271931,0.4617899,0.1817034
 \Quadrupole=-2.7931196,2.0743923,0.7187272,1.6480221,3.5456485,1.69786
 95\PG=C01 [X(C6H6O1)]\\@
 The archive entry for this job was punched.


 THE MOST INCOMPREHENSIBLE THING ABOUT THE WORLD
 IS THAT IT IS COMPREHENSIBLE. -- A. EINSTEIN
 Job cpu time:       0 days  0 hours  7 minutes  4.5 seconds.
 Elapsed time:       0 days  0 hours  1 minutes 50.2 seconds.
 File lengths (MBytes):  RWF=     10 Int=      0 D2E=      0 Chk=     32 Scr=      1
 Normal termination of Gaussian 16 at Tue May 28 16:30:47 2024.
