13
geometry.out	Energy: -192871.4800792
H          4.50043        0.61848        0.21836
O          5.11211       -0.12602        0.17657
C          6.01182       -0.02106        1.19228
C          5.98912        1.02765        2.11176
C          6.98384       -1.01735        1.29256
C          6.93933        1.07568        3.12835
H          5.23157        1.80506        2.03434
C          7.92570       -0.95722        2.31134
H          6.98353       -1.82418        0.56713
C          7.91143        0.08696        3.23530
H          6.91431        1.89584        3.83993
H          8.67961       -1.73571        2.38388
H          8.65049        0.12770        4.02888
